<?xml version="1.0" encoding="ISO-8859-1"?>
<modeling>
 <generator>
  <i name="program" type="string">vasp </i>
  <i name="version" type="string">6.4.3  </i>
  <i name="subversion" type="string">19Mar24 (build Oct 16 2024 18:29:25) complex                          parallel </i>
  <i name="platform" type="string">LinuxIFC </i>
  <i name="date" type="string">2025 08 12 </i>
  <i name="time" type="string">17:39:30 </i>
 </generator>
 <incar>
  <i type="string" name="PREC">Accurate</i>
  <i type="string" name="ALGO">Fast</i>
  <i type="int" name="ISPIN">     2</i>
  <i type="int" name="NELM">   100</i>
  <i type="int" name="IBRION">     2</i>
  <i name="EDIFF">      0.00030000</i>
  <i type="int" name="NSW">    99</i>
  <i type="int" name="ISIF">     3</i>
  <i name="ENCUT">    520.00000000</i>
  <v name="MAGMOM">      0.60000000      0.60000000      0.60000000      0.60000000      0.60000000      0.60000000</v>
  <i type="string" name="LREAL">Auto</i>
  <i type="int" name="ISMEAR">    -5</i>
  <i name="SIGMA">      0.05000000</i>
  <i type="logical" name="LWAVE"> F  </i>
  <i type="int" name="LORBIT">    11</i>
  <i type="logical" name="LASPH"> T  </i>
 </incar>
 <primitive_cell>
  <structure name="primitive_cell" >
   <crystal>
    <varray name="basis" >
     <v>       3.16990000       0.00000000       0.00000000 </v>
     <v>       0.00000000       3.66075600       0.00000000 </v>
     <v>       0.00000000       0.00000000       8.49548600 </v>
    </varray>
    <i name="volume">     98.58357728 </i>
    <varray name="rec_basis" >
     <v>       0.31546736       0.00000000       0.00000000 </v>
     <v>       0.00000000       0.27316762       0.00000000 </v>
     <v>       0.00000000       0.00000000       0.11770957 </v>
    </varray>
   </crystal>
   <varray name="positions" >
    <v>       0.50000000       0.00000000       0.90206400 </v>
    <v>       0.00000000       0.50000000       0.09793600 </v>
    <v>       0.00000000       0.00000000       0.70368200 </v>
    <v>       0.50000000       0.50000000       0.29631800 </v>
    <v>       0.50000000       0.50000000       0.95431900 </v>
    <v>       0.00000000       0.00000000       0.04568100 </v>
   </varray>
  </structure>
  <varray name="primitive_index" >
   <v type="int" >        1 </v>
   <v type="int" >        2 </v>
   <v type="int" >        3 </v>
   <v type="int" >        4 </v>
   <v type="int" >        5 </v>
   <v type="int" >        6 </v>
  </varray>
 </primitive_cell>
 <kpoints>
  <generation param="Gamma">
   <v type="int" name="divisions">       7        6        2 </v>
   <v name="usershift">      0.00000000       0.00000000       0.00000000 </v>
   <v name="genvec1">      0.14285714       0.00000000       0.00000000 </v>
   <v name="genvec2">      0.00000000       0.16666667       0.00000000 </v>
   <v name="genvec3">      0.00000000       0.00000000       0.50000000 </v>
   <v name="shift">      0.00000000       0.00000000       0.00000000 </v>
  </generation>
  <varray name="kpointlist" >
   <v>       0.00000000       0.00000000       0.00000000 </v>
   <v>       0.14285714       0.00000000       0.00000000 </v>
   <v>       0.28571429       0.00000000       0.00000000 </v>
   <v>       0.42857143       0.00000000       0.00000000 </v>
   <v>       0.00000000       0.16666667       0.00000000 </v>
   <v>       0.14285714       0.16666667       0.00000000 </v>
   <v>       0.28571429       0.16666667       0.00000000 </v>
   <v>       0.42857143       0.16666667       0.00000000 </v>
   <v>       0.00000000       0.33333333       0.00000000 </v>
   <v>       0.14285714       0.33333333       0.00000000 </v>
   <v>       0.28571429       0.33333333       0.00000000 </v>
   <v>       0.42857143       0.33333333       0.00000000 </v>
   <v>       0.00000000       0.50000000       0.00000000 </v>
   <v>       0.14285714       0.50000000       0.00000000 </v>
   <v>       0.28571429       0.50000000       0.00000000 </v>
   <v>       0.42857143       0.50000000       0.00000000 </v>
   <v>       0.00000000       0.00000000       0.50000000 </v>
   <v>       0.14285714       0.00000000       0.50000000 </v>
   <v>       0.28571429       0.00000000       0.50000000 </v>
   <v>       0.42857143       0.00000000       0.50000000 </v>
   <v>       0.00000000       0.16666667       0.50000000 </v>
   <v>       0.14285714       0.16666667       0.50000000 </v>
   <v>       0.28571429       0.16666667       0.50000000 </v>
   <v>       0.42857143       0.16666667       0.50000000 </v>
   <v>       0.00000000       0.33333333       0.50000000 </v>
   <v>       0.14285714       0.33333333       0.50000000 </v>
   <v>       0.28571429       0.33333333       0.50000000 </v>
   <v>       0.42857143       0.33333333       0.50000000 </v>
   <v>       0.00000000       0.50000000       0.50000000 </v>
   <v>       0.14285714       0.50000000       0.50000000 </v>
   <v>       0.28571429       0.50000000       0.50000000 </v>
   <v>       0.42857143       0.50000000       0.50000000 </v>
  </varray>
  <varray name="weights" >
   <v>       0.01190476 </v>
   <v>       0.02380952 </v>
   <v>       0.02380952 </v>
   <v>       0.02380952 </v>
   <v>       0.02380952 </v>
   <v>       0.04761905 </v>
   <v>       0.04761905 </v>
   <v>       0.04761905 </v>
   <v>       0.02380952 </v>
   <v>       0.04761905 </v>
   <v>       0.04761905 </v>
   <v>       0.04761905 </v>
   <v>       0.01190476 </v>
   <v>       0.02380952 </v>
   <v>       0.02380952 </v>
   <v>       0.02380952 </v>
   <v>       0.01190476 </v>
   <v>       0.02380952 </v>
   <v>       0.02380952 </v>
   <v>       0.02380952 </v>
   <v>       0.02380952 </v>
   <v>       0.04761905 </v>
   <v>       0.04761905 </v>
   <v>       0.04761905 </v>
   <v>       0.02380952 </v>
   <v>       0.04761905 </v>
   <v>       0.04761905 </v>
   <v>       0.04761905 </v>
   <v>       0.01190476 </v>
   <v>       0.02380952 </v>
   <v>       0.02380952 </v>
   <v>       0.02380952 </v>
  </varray>
  <varray name="tetrahedronlist"  type="int" >
   <v type="int" >        2        3        6        7       22 </v>
   <v type="int" >        2        2        3        6       22 </v>
   <v type="int" >        2        2        3       18       22 </v>
   <v type="int" >        2        3        7       22       23 </v>
   <v type="int" >        2        3       19       22       23 </v>
   <v type="int" >        2        3       18       19       22 </v>
   <v type="int" >        2        6       19       22       23 </v>
   <v type="int" >        2        6       18       19       22 </v>
   <v type="int" >        2        2        6       18       19 </v>
   <v type="int" >        2        6        7       19       23 </v>
   <v type="int" >        2        3        6        7       19 </v>
   <v type="int" >        2        2        3        6       19 </v>
   <v type="int" >        2       11       24       27       28 </v>
   <v type="int" >        2       11       23       24       27 </v>
   <v type="int" >        2        7       11       23       24 </v>
   <v type="int" >        2       11       12       24       28 </v>
   <v type="int" >        2        8       11       12       24 </v>
   <v type="int" >        2        7        8       11       24 </v>
   <v type="int" >        2        8       11       12       27 </v>
   <v type="int" >        2        7        8       11       27 </v>
   <v type="int" >        2        7        8       23       27 </v>
   <v type="int" >        2        8       12       27       28 </v>
   <v type="int" >        2        8       24       27       28 </v>
   <v type="int" >        2        8       23       24       27 </v>
   <v type="int" >        2       12       16       16       32 </v>
   <v type="int" >        2       12       12       16       32 </v>
   <v type="int" >        2       12       12       28       32 </v>
   <v type="int" >        2       12       16       32       32 </v>
   <v type="int" >        2       12       28       32       32 </v>
   <v type="int" >        2       12       28       28       32 </v>
   <v type="int" >        2       16       28       32       32 </v>
   <v type="int" >        2       16       28       28       32 </v>
   <v type="int" >        2       12       16       28       28 </v>
   <v type="int" >        2       16       16       28       32 </v>
   <v type="int" >        2       12       16       16       28 </v>
   <v type="int" >        2       12       12       16       28 </v>
   <v type="int" >        2       12       27       28       31 </v>
   <v type="int" >        2       12       28       31       32 </v>
   <v type="int" >        2       12       16       31       32 </v>
   <v type="int" >        2       11       12       27       31 </v>
   <v type="int" >        2       11       12       15       31 </v>
   <v type="int" >        2       12       15       16       31 </v>
   <v type="int" >        2       11       12       15       28 </v>
   <v type="int" >        2       12       15       16       28 </v>
   <v type="int" >        2       15       16       28       32 </v>
   <v type="int" >        2       11       15       27       28 </v>
   <v type="int" >        2       15       27       28       31 </v>
   <v type="int" >        2       15       28       31       32 </v>
   <v type="int" >        2        6        7       10       23 </v>
   <v type="int" >        2        7       10       11       23 </v>
   <v type="int" >        2       10       11       23       27 </v>
   <v type="int" >        2        6       10       22       23 </v>
   <v type="int" >        2       10       22       23       26 </v>
   <v type="int" >        2       10       23       26       27 </v>
   <v type="int" >        2        7       22       23       26 </v>
   <v type="int" >        2        7       23       26       27 </v>
   <v type="int" >        2        7       11       26       27 </v>
   <v type="int" >        2        6        7       22       26 </v>
   <v type="int" >        2        6        7       10       26 </v>
   <v type="int" >        2        7       10       11       26 </v>
   <v type="int" >        2        2       17       18       21 </v>
   <v type="int" >        2        2       18       21       22 </v>
   <v type="int" >        2        2        6       21       22 </v>
   <v type="int" >        2        1        2       17       21 </v>
   <v type="int" >        2        1        2        5       21 </v>
   <v type="int" >        2        2        5        6       21 </v>
   <v type="int" >        2        1        2        5       18 </v>
   <v type="int" >        2        2        5        6       18 </v>
   <v type="int" >        2        5        6       18       22 </v>
   <v type="int" >        2        1        5       17       18 </v>
   <v type="int" >        2        5       17       18       21 </v>
   <v type="int" >        2        5       18       21       22 </v>
   <v type="int" >        2        1        5        6       22 </v>
   <v type="int" >        2        1        2        6       22 </v>
   <v type="int" >        2        1        2       18       22 </v>
   <v type="int" >        2        1        5       21       22 </v>
   <v type="int" >        2        1       17       21       22 </v>
   <v type="int" >        2        1       17       18       22 </v>
   <v type="int" >        2        6       17       21       22 </v>
   <v type="int" >        2        6       17       18       22 </v>
   <v type="int" >        2        2        6       17       18 </v>
   <v type="int" >        2        5        6       17       21 </v>
   <v type="int" >        2        1        5        6       17 </v>
   <v type="int" >        2        1        2        6       17 </v>
   <v type="int" >        2        9       22       25       26 </v>
   <v type="int" >        2        9       21       22       25 </v>
   <v type="int" >        2        5        9       21       22 </v>
   <v type="int" >        2        9       10       22       26 </v>
   <v type="int" >        2        6        9       10       22 </v>
   <v type="int" >        2        5        6        9       22 </v>
   <v type="int" >        2        6        9       10       25 </v>
   <v type="int" >        2        5        6        9       25 </v>
   <v type="int" >        2        5        6       21       25 </v>
   <v type="int" >        2        6       10       25       26 </v>
   <v type="int" >        2        6       22       25       26 </v>
   <v type="int" >        2        6       21       22       25 </v>
   <v type="int" >        2       11       14       15       30 </v>
   <v type="int" >        2       10       11       14       30 </v>
   <v type="int" >        2       10       11       26       30 </v>
   <v type="int" >        2       11       15       30       31 </v>
   <v type="int" >        2       11       27       30       31 </v>
   <v type="int" >        2       11       26       27       30 </v>
   <v type="int" >        2       14       27       30       31 </v>
   <v type="int" >        2       14       26       27       30 </v>
   <v type="int" >        2       10       14       26       27 </v>
   <v type="int" >        2       14       15       27       31 </v>
   <v type="int" >        2       11       14       15       27 </v>
   <v type="int" >        2       10       11       14       27 </v>
   <v type="int" >        2       11       27       28       32 </v>
   <v type="int" >        2       11       27       31       32 </v>
   <v type="int" >        2       11       15       31       32 </v>
   <v type="int" >        2       11       12       28       32 </v>
   <v type="int" >        2       11       12       16       32 </v>
   <v type="int" >        2       11       15       16       32 </v>
   <v type="int" >        2       11       12       16       27 </v>
   <v type="int" >        2       11       15       16       27 </v>
   <v type="int" >        2       15       16       27       31 </v>
   <v type="int" >        2       12       16       27       28 </v>
   <v type="int" >        2       16       27       28       32 </v>
   <v type="int" >        2       16       27       31       32 </v>
   <v type="int" >        2        8        8       12       24 </v>
   <v type="int" >        2        8       12       12       24 </v>
   <v type="int" >        2       12       12       24       28 </v>
   <v type="int" >        2        8       12       24       24 </v>
   <v type="int" >        2       12       24       24       28 </v>
   <v type="int" >        2       12       24       28       28 </v>
   <v type="int" >        2        8       24       24       28 </v>
   <v type="int" >        2        8       24       28       28 </v>
   <v type="int" >        2        8       12       28       28 </v>
   <v type="int" >        2        8        8       24       28 </v>
   <v type="int" >        2        8        8       12       28 </v>
   <v type="int" >        2        8       12       12       28 </v>
   <v type="int" >        2        4       19       20       23 </v>
   <v type="int" >        2        4       20       23       24 </v>
   <v type="int" >        2        4        8       23       24 </v>
   <v type="int" >        2        3        4       19       23 </v>
   <v type="int" >        2        3        4        7       23 </v>
   <v type="int" >        2        4        7        8       23 </v>
   <v type="int" >        2        3        4        7       20 </v>
   <v type="int" >        2        4        7        8       20 </v>
   <v type="int" >        2        7        8       20       24 </v>
   <v type="int" >        2        3        7       19       20 </v>
   <v type="int" >        2        7       19       20       23 </v>
   <v type="int" >        2        7       20       23       24 </v>
   <v type="int" >        2        2        6        7       23 </v>
   <v type="int" >        2        2        3        7       23 </v>
   <v type="int" >        2        2        3       19       23 </v>
   <v type="int" >        2        2        6       22       23 </v>
   <v type="int" >        2        2       18       22       23 </v>
   <v type="int" >        2        2       18       19       23 </v>
   <v type="int" >        2        7       18       22       23 </v>
   <v type="int" >        2        7       18       19       23 </v>
   <v type="int" >        2        3        7       18       19 </v>
   <v type="int" >        2        6        7       18       22 </v>
   <v type="int" >        2        2        6        7       18 </v>
   <v type="int" >        2        2        3        7       18 </v>
   <v type="int" >        2       10       21       25       26 </v>
   <v type="int" >        2       10       21       22       26 </v>
   <v type="int" >        2        6       10       21       22 </v>
   <v type="int" >        2        9       10       21       25 </v>
   <v type="int" >        2        5        9       10       21 </v>
   <v type="int" >        2        5        6       10       21 </v>
   <v type="int" >        2        5        9       10       26 </v>
   <v type="int" >        2        5        6       10       26 </v>
   <v type="int" >        2        5        6       22       26 </v>
   <v type="int" >        2        5        9       25       26 </v>
   <v type="int" >        2        5       21       25       26 </v>
   <v type="int" >        2        5       21       22       26 </v>
   <v type="int" >        2       10       13       14       29 </v>
   <v type="int" >        2        9       10       13       29 </v>
   <v type="int" >        2        9       10       25       29 </v>
   <v type="int" >        2       10       14       29       30 </v>
   <v type="int" >        2       10       26       29       30 </v>
   <v type="int" >        2       10       25       26       29 </v>
   <v type="int" >        2       13       26       29       30 </v>
   <v type="int" >        2       13       25       26       29 </v>
   <v type="int" >        2        9       13       25       26 </v>
   <v type="int" >        2       13       14       26       30 </v>
   <v type="int" >        2       10       13       14       26 </v>
   <v type="int" >        2        9       10       13       26 </v>
   <v type="int" >        2       10       26       27       31 </v>
   <v type="int" >        2       10       26       30       31 </v>
   <v type="int" >        2       10       14       30       31 </v>
   <v type="int" >        2       10       11       27       31 </v>
   <v type="int" >        2       10       11       15       31 </v>
   <v type="int" >        2       10       14       15       31 </v>
   <v type="int" >        2       10       11       15       26 </v>
   <v type="int" >        2       10       14       15       26 </v>
   <v type="int" >        2       14       15       26       30 </v>
   <v type="int" >        2       11       15       26       27 </v>
   <v type="int" >        2       15       26       27       31 </v>
   <v type="int" >        2       15       26       30       31 </v>
   <v type="int" >        2        7        8       12       23 </v>
   <v type="int" >        2        7       11       12       23 </v>
   <v type="int" >        2       11       12       23       27 </v>
   <v type="int" >        2        8       12       23       24 </v>
   <v type="int" >        2       12       23       24       28 </v>
   <v type="int" >        2       12       23       27       28 </v>
   <v type="int" >        2        7       23       24       28 </v>
   <v type="int" >        2        7       23       27       28 </v>
   <v type="int" >        2        7       11       27       28 </v>
   <v type="int" >        2        7        8       24       28 </v>
   <v type="int" >        2        7        8       12       28 </v>
   <v type="int" >        2        7       11       12       28 </v>
   <v type="int" >        2        4       20       20       24 </v>
   <v type="int" >        2        4       20       24       24 </v>
   <v type="int" >        2        4        8       24       24 </v>
   <v type="int" >        2        4        4       20       24 </v>
   <v type="int" >        2        4        4        8       24 </v>
   <v type="int" >        2        4        8        8       24 </v>
   <v type="int" >        2        4        4        8       20 </v>
   <v type="int" >        2        4        8        8       20 </v>
   <v type="int" >        2        8        8       20       24 </v>
   <v type="int" >        2        4        8       20       20 </v>
   <v type="int" >        2        8       20       20       24 </v>
   <v type="int" >        2        8       20       24       24 </v>
   <v type="int" >        2        3        7        8       24 </v>
   <v type="int" >        2        3        4        8       24 </v>
   <v type="int" >        2        3        4       20       24 </v>
   <v type="int" >        2        3        7       23       24 </v>
   <v type="int" >        2        3       19       23       24 </v>
   <v type="int" >        2        3       19       20       24 </v>
   <v type="int" >        2        8       19       23       24 </v>
   <v type="int" >        2        8       19       20       24 </v>
   <v type="int" >        2        4        8       19       20 </v>
   <v type="int" >        2        7        8       19       23 </v>
   <v type="int" >        2        3        7        8       19 </v>
   <v type="int" >        2        3        4        8       19 </v>
   <v type="int" >        2       11       22       26       27 </v>
   <v type="int" >        2       11       22       23       27 </v>
   <v type="int" >        2        7       11       22       23 </v>
   <v type="int" >        2       10       11       22       26 </v>
   <v type="int" >        2        6       10       11       22 </v>
   <v type="int" >        2        6        7       11       22 </v>
   <v type="int" >        2        6       10       11       27 </v>
   <v type="int" >        2        6        7       11       27 </v>
   <v type="int" >        2        6        7       23       27 </v>
   <v type="int" >        2        6       10       26       27 </v>
   <v type="int" >        2        6       22       26       27 </v>
   <v type="int" >        2        6       22       23       27 </v>
   <v type="int" >        2        9       13       14       30 </v>
   <v type="int" >        2        9       10       14       30 </v>
   <v type="int" >        2        9       10       26       30 </v>
   <v type="int" >        2        9       13       29       30 </v>
   <v type="int" >        2        9       25       29       30 </v>
   <v type="int" >        2        9       25       26       30 </v>
   <v type="int" >        2       14       25       29       30 </v>
   <v type="int" >        2       14       25       26       30 </v>
   <v type="int" >        2       10       14       25       26 </v>
   <v type="int" >        2       13       14       25       29 </v>
   <v type="int" >        2        9       13       14       25 </v>
   <v type="int" >        2        9       10       14       25 </v>
  </varray>
  <i name="volumeweight">      0.00198413 </i>
 </kpoints>
 <parameters>
  <separator name="general" >
   <i type="string" name="SYSTEM">unknown system</i>
   <i type="logical" name="LCOMPAT"> F  </i>
  </separator>
  <separator name="electronic" >
   <i type="string" name="PREC">accura</i>
   <i name="ENMAX">    520.00000000</i>
   <i name="ENAUG">    605.39200000</i>
   <i name="EDIFF">      0.00030000</i>
   <i type="int" name="IALGO">    68</i>
   <i type="int" name="IWAVPR">    11</i>
   <i type="int" name="NBANDS">    32</i>
   <i type="int" name="NBANDSLOW">    -1</i>
   <i type="int" name="NBANDSHIGH">    -1</i>
   <i name="NELECT">     32.00000000</i>
   <i type="int" name="TURBO">     0</i>
   <i type="int" name="IRESTART">     0</i>
   <i type="int" name="NREBOOT">     0</i>
   <i type="int" name="NMIN">     0</i>
   <i name="EREF">      0.00000000</i>
   <separator name="electronic smearing" >
    <i type="int" name="ISMEAR">    -5</i>
    <i name="SIGMA">      0.05000000</i>
    <i name="KSPACING">      0.50000000</i>
    <i type="logical" name="KGAMMA"> T  </i>
    <i type="logical" name="KBLOWUP"> T  </i>
   </separator>
   <separator name="electronic projectors" >
    <i type="logical" name="LREAL"> T  </i>
    <v name="ROPT">     -0.00025000     -0.00025000     -0.00025000</v>
    <i type="int" name="LMAXPAW">  -100</i>
    <i type="int" name="LMAXMIX">     2</i>
    <i type="logical" name="NLSPLINE"> F  </i>
   </separator>
   <separator name="electronic startup" >
    <i type="int" name="ISTART">     0</i>
    <i type="int" name="ICHARG">     2</i>
    <i type="int" name="INIWAV">     1</i>
   </separator>
   <separator name="electronic spin" >
    <i type="int" name="ISPIN">     2</i>
    <i type="logical" name="LNONCOLLINEAR"> F  </i>
    <v name="MAGMOM">      0.60000000      0.60000000      0.60000000      0.60000000      0.60000000      0.60000000</v>
    <i name="NUPDOWN">     -1.00000000</i>
    <i type="logical" name="LSORBIT"> F  </i>
    <v name="SAXIS">      0.00000000      0.00000000      1.00000000</v>
    <i type="logical" name="LSPIRAL"> F  </i>
    <v name="QSPIRAL">      0.00000000      0.00000000      0.00000000</v>
    <i type="logical" name="LZEROZ"> F  </i>
   </separator>
   <separator name="electronic exchange-correlation" >
    <i type="logical" name="LASPH"> T  </i>
   </separator>
   <separator name="electronic convergence" >
    <i type="int" name="NELM">   100</i>
    <i type="int" name="NELMDL">    -5</i>
    <i type="int" name="NELMIN">     2</i>
    <i name="ENINI">    520.00000000</i>
    <separator name="electronic convergence detail" >
     <i type="logical" name="LDIAG"> T  </i>
     <i type="logical" name="LSUBROT"> F  </i>
     <i name="WEIMIN">      0.00100000</i>
     <i name="EBREAK">      0.00000234</i>
     <i name="DEPER">      0.30000000</i>
     <i type="int" name="NRMM">     4</i>
     <i name="TIME">      0.40000000</i>
    </separator>
   </separator>
   <separator name="electronic mixer" >
    <i name="AMIX">      0.40000000</i>
    <i name="BMIX">      1.00000000</i>
    <i name="AMIN">      0.10000000</i>
    <i name="AMIX_MAG">      1.60000000</i>
    <i name="BMIX_MAG">      1.00000000</i>
    <separator name="electronic mixer details" >
     <i type="int" name="IMIX">     4</i>
     <i type="logical" name="MIXFIRST"> F  </i>
     <i type="int" name="MAXMIX">   -45</i>
     <i name="WC">    100.00000000</i>
     <i type="int" name="INIMIX">     1</i>
     <i type="int" name="MIXPRE">     1</i>
     <i type="int" name="MREMOVE">     5</i>
    </separator>
   </separator>
   <separator name="electronic dipolcorrection" >
    <i type="logical" name="LDIPOL"> F  </i>
    <i type="logical" name="LMONO"> F  </i>
    <i type="int" name="IDIPOL">     0</i>
    <i name="EPSILON">      1.00000000</i>
    <v name="DIPOL">   -100.00000000   -100.00000000   -100.00000000</v>
    <i name="EFIELD">      0.00000000</i>
    <i type="logical" name="LVACPOTAV"> F  </i>
   </separator>
  </separator>
  <separator name="grids" >
   <i type="int" name="NGX">    24</i>
   <i type="int" name="NGY">    28</i>
   <i type="int" name="NGZ">    64</i>
   <i type="int" name="NGXF">    48</i>
   <i type="int" name="NGYF">    56</i>
   <i type="int" name="NGZF">   128</i>
   <i type="logical" name="ADDGRID"> F  </i>
  </separator>
  <separator name="ionic" >
   <i type="int" name="NSW">    99</i>
   <i type="int" name="IBRION">     2</i>
   <i type="int" name="MDALGO">     0</i>
   <i type="int" name="ISIF">     3</i>
   <i name="PSTRESS">      0.00000000</i>
   <i name="EDIFFG">      0.00300000</i>
   <i type="int" name="NFREE">     1</i>
   <i name="POTIM">      0.50000000</i>
   <i name="SMASS">     -3.00000000</i>
   <i name="SCALEE">      1.00000000</i>
  </separator>
  <separator name="ionic md" >
   <i name="TEBEG">      0.00010000</i>
   <i name="TEEND">      0.00010000</i>
   <i type="int" name="NBLOCK">     1</i>
   <i type="int" name="KBLOCK">    99</i>
   <i type="int" name="NPACO">   256</i>
   <i name="APACO">     10.00000000</i>
  </separator>
  <separator name="symmetry" >
   <i type="int" name="ISYM">     2</i>
   <i name="SYMPREC">      0.00001000</i>
  </separator>
  <separator name="dos" >
   <i type="int" name="LORBIT">    11</i>
   <v name="RWIGS">     -1.00000000     -1.00000000     -1.00000000</v>
   <i type="int" name="NEDOS">   301</i>
   <i name="EMIN">     10.00000000</i>
   <i name="EMAX">    -10.00000000</i>
   <i name="EFERMI">      0.00000000</i>
  </separator>
  <separator name="writing" >
   <i type="int" name="NWRITE">     2</i>
   <i type="logical" name="LWAVE"> F  </i>
   <i type="logical" name="LDOWNSAMPLE"> F  </i>
   <i type="logical" name="LCHARG"> T  </i>
   <i type="logical" name="LPARD"> F  </i>
   <i type="logical" name="LVTOT"> F  </i>
   <i type="logical" name="LVHAR"> F  </i>
   <i type="logical" name="LELF"> F  </i>
   <i type="logical" name="LOPTICS"> F  </i>
   <v name="STM">      0.00000000      0.00000000      0.00000000      0.00000000      0.00000000      0.00000000      0.00000000</v>
  </separator>
  <separator name="performance" >
   <i type="int" name="NPAR">    32</i>
   <i type="int" name="NSIM">     4</i>
   <i type="int" name="NBLK">    -1</i>
   <i type="logical" name="LPLANE"> T  </i>
   <i type="logical" name="LSCALAPACK"> T  </i>
   <i type="logical" name="LSCAAWARE"> F  </i>
   <i type="logical" name="LSCALU"> F  </i>
   <i type="logical" name="LASYNC"> F  </i>
   <i type="logical" name="LORBITALREAL"> F  </i>
  </separator>
  <separator name="miscellaneous" >
   <i type="int" name="IDIOT">     3</i>
   <i type="int" name="PHON_NSTRUCT">    -1</i>
   <i type="logical" name="LMUSIC"> F  </i>
   <v name="POMASS">     26.98200000     35.45300000     16.00000000</v>
   <v name="DARWINR">      0.00000000      0.00000000      0.00000000</v>
   <v name="DARWINV">      1.00000000      1.00000000      1.00000000</v>
   <i type="logical" name="LCORR"> T  </i>
  </separator>
  <i type="logical" name="GGA_COMPAT"> T  </i>
  <i type="logical" name="LBERRY"> F  </i>
  <i type="int" name="ICORELEVEL">     0</i>
  <i type="logical" name="LDAU"> F  </i>
  <i type="int" name="I_CONSTRAINED_M">     0</i>
  <separator name="electronic exchange-correlation" >
   <i type="string" name="GGA    ">PE</i>
   <i type="string" name="XC_C">1</i>
   <i type="int" name="VOSKOWN">     0</i>
   <i type="logical" name="LHFCALC"> F  </i>
   <i type="string" name="PRECFOCK"></i>
   <i type="logical" name="LSYMGRAD"> F  </i>
   <i type="logical" name="LHFONE"> F  </i>
   <i type="logical" name="LRHFCALC"> F  </i>
   <i type="logical" name="LTHOMAS"> F  </i>
   <i type="logical" name="LMODELHF"> F  </i>
   <i type="logical" name="LFOCKACE"> F  </i>
   <i name="ENCUT4O">     -1.00000000</i>
   <i type="int" name="EXXOEP">     0</i>
   <i type="int" name="FOURORBIT">     0</i>
   <i name="AEXX">      0.00000000</i>
   <i name="HFALPHA">      0.00000000</i>
   <i name="MCALPHA">      0.00000000</i>
   <i name="ALDAX">      1.00000000</i>
   <i name="AGGAX">      1.00000000</i>
   <i name="AMGGAX">      1.00000000</i>
   <i name="ALDAC">      1.00000000</i>
   <i name="AGGAC">      1.00000000</i>
   <i name="AMGGAC">      1.00000000</i>
   <i type="int" name="NKREDX">     1</i>
   <i type="int" name="NKREDY">     1</i>
   <i type="int" name="NKREDZ">     1</i>
   <i type="logical" name="SHIFTRED"> F  </i>
   <i type="logical" name="ODDONLY"> F  </i>
   <i type="logical" name="EVENONLY"> F  </i>
   <i type="int" name="LMAXFOCK">     0</i>
   <i type="int" name="NMAXFOCKAE">     0</i>
   <i type="logical" name="LFOCKAEDFT"> F  </i>
   <i name="HFSCREEN">      0.00000000</i>
   <i name="HFSCREENC">      0.00000000</i>
   <i type="int" name="NBANDSGWLOW">     0</i>
  </separator>
  <separator name="vdW DFT" >
   <i type="logical" name="LUSE_VDW"> F  </i>
   <i type="int" name="IVDW_NL">    -1</i>
   <i type="logical" name="LSPIN_VDW"> F  </i>
   <i name="ZAB_VDW">     -0.84910000</i>
   <i name="GAMMA_VDW">      1.39626340</i>
   <i name="ALPHA_VDW">      0.00000000</i>
   <i name="PARAM1">      0.12340000</i>
   <i name="PARAM2">      1.00000000</i>
   <i name="BPARAM">      6.30000000</i>
   <i name="CPARAM">      0.00930000</i>
  </separator>
  <separator name="model GW" >
   <i type="int" name="MODEL_GW">     0</i>
   <i name="MODEL_EPS0">      9.85835773</i>
   <i name="MODEL_ALPHA">      1.00000000</i>
  </separator>
  <separator name="linear response parameters" >
   <i type="logical" name="LEPSILON"> F  </i>
   <i type="logical" name="LRPA"> F  </i>
   <i type="logical" name="LNABLA"> F  </i>
   <i type="logical" name="LVEL"> F  </i>
   <i name="CSHIFT">      0.10000000</i>
   <i name="OMEGAMAX">     -1.00000000</i>
   <i name="DEG_THRESHOLD">      0.00200000</i>
   <i name="RTIME">     -0.10000000</i>
   <i name="WPLASMAI">      0.00000000</i>
   <v name="DFIELD">      0.00000000      0.00000000      0.00000000</v>
   <v name="WPLASMA">      0.00000000      0.00000000      0.00000000      0.00000000      0.00000000      0.00000000      0.00000000      0.00000000      0.00000000</v>
  </separator>
  <separator name="orbital magnetization" >
   <i type="logical" name="NUCIND"> F  </i>
   <v name="MAGPOS">      0.00000000      0.00000000      0.00000000</v>
   <i type="logical" name="LNICSALL"> T  </i>
   <i type="logical" name="ORBITALMAG"> F  </i>
   <i type="logical" name="LMAGBLOCH"> F  </i>
   <i type="logical" name="LCHIMAG"> F  </i>
   <i type="logical" name="LGAUGE"> T  </i>
   <i type="int" name="MAGATOM">     0</i>
   <v name="MAGDIPOL">      0.00000000      0.00000000      0.00000000</v>
   <v name="AVECCONST">      0.00000000      0.00000000      0.00000000</v>
  </separator>
  <separator name="response functions" >
   <i type="logical" name="LALL_IN_ONE"> F  </i>
   <i type="int" name="IALL_IN_ONE">    -1</i>
   <i type="int" name="NBANDS_WAVE">    -1</i>
   <i type="logical" name="LFINITE_TEMPERATURE"> F  </i>
   <i type="logical" name="LADDER"> F  </i>
   <i type="logical" name="LRPAFORCE"> F  </i>
   <i type="logical" name="LFXC"> F  </i>
   <i type="logical" name="LHARTREE"> T  </i>
   <i type="int" name="IBSE">     0</i>
   <v type="int" name="KPOINT">    -1     0     0     0</v>
   <i type="logical" name="LTCTC"> F  </i>
   <i type="logical" name="LTCTE"> F  </i>
   <i type="logical" name="LTETE"> F  </i>
   <i type="logical" name="LTRIPLET"> F  </i>
   <i type="logical" name="LFXCEPS"> F  </i>
   <i type="logical" name="LFXHEG"> F  </i>
   <i type="int" name="NATURALO">     2</i>
   <i type="logical" name="LHOLEGF"> F  </i>
   <i type="logical" name="L2ORDER"> F  </i>
   <i type="logical" name="LDMP1"> F  </i>
   <i type="logical" name="LMP2LT"> F  </i>
   <i type="logical" name="LSMP2LT"> F  </i>
   <i type="logical" name="LGWLF"> F  </i>
   <i name="ENCUTGW">     -1.60000002</i>
   <i name="ENCUTGWSOFT">     -1.60000002</i>
   <i name="ENCUTLF">     -1.00000000</i>
   <i type="logical" name="ESF_SPLINES"> F  </i>
   <i name="ESF_CONV">      0.01000000</i>
   <i type="int" name="ESF_NINTER">    15</i>
   <i type="int" name="LMAXMP2">    -1</i>
   <i name="SCISSOR">      0.00000000</i>
   <i type="int" name="NOMEGA">     0</i>
   <i type="int" name="NOMEGAR">     0</i>
   <i type="int" name="NBANDSGW">    -1</i>
   <i type="int" name="NBANDSO">    -1</i>
   <i type="int" name="NBANDSV">    -1</i>
   <i type="int" name="NELMGW">     1</i>
   <i type="int" name="NELMHF">     1</i>
   <i type="int" name="DIM">     3</i>
   <i type="int" name="IESPILON">     4</i>
   <i type="int" name="ANTIRES">     0</i>
   <i name="OMEGAMAX">    -30.00000000</i>
   <i name="OMEGAMIN">    -30.00000000</i>
   <i name="OMEGATL">   -200.00000000</i>
   <i type="int" name="OMEGAGRID">     0</i>
   <i name="CSHIFT">     -0.10000000</i>
   <i type="logical" name="LSELFENERGY"> F  </i>
   <i type="logical" name="LSPECTRAL"> F  </i>
   <i type="logical" name="LSPECTRALGW"> F  </i>
   <i type="logical" name="LSINGLES"> F  </i>
   <i type="logical" name="LFERMIGW"> F  </i>
   <i type="logical" name="ODDONLYGW"> F  </i>
   <i type="logical" name="EVENONLYGW"> F  </i>
   <i type="int" name="NKREDLFX">     1</i>
   <i type="int" name="NKREDLFY">     1</i>
   <i type="int" name="NKREDLFZ">     1</i>
   <i type="int" name="MAXMEM">  2800</i>
   <i type="int" name="TELESCOPE">     0</i>
   <i type="int" name="NTAUPAR">    -1</i>
   <i type="int" name="NOMEGAPAR">    -1</i>
   <i name="DAMP_NEWTON">      0.80000001</i>
   <i name="LAMBDA">      1.00000000</i>
  </separator>
  <separator name="External order field" >
   <i name="OFIELD_KAPPA">      0.00000000</i>
   <v name="OFIELD_K">      0.00000000      0.00000000      0.00000000</v>
   <i name="OFIELD_Q6_NEAR">      0.00000000</i>
   <i name="OFIELD_Q6_FAR">      0.00000000</i>
   <i name="OFIELD_A">      0.00000000</i>
  </separator>
  <separator name="optional k-points parameters" >
   <i type="int" name="KPOINTS_OPT_MODE">     1</i>
   <i type="logical" name="LKPOINTS_OPT"> F  </i>
  </separator>
 </parameters>
 <atominfo>
  <atoms>       6 </atoms>
  <types>       3 </types>
  <array name="atoms" >
   <dimension dim="1">ion</dimension>
   <field type="string">element</field>
   <field type="int">atomtype</field>
   <set>
    <rc><c>Al</c><c>   1</c></rc>
    <rc><c>Al</c><c>   1</c></rc>
    <rc><c>Cl</c><c>   2</c></rc>
    <rc><c>Cl</c><c>   2</c></rc>
    <rc><c>O </c><c>   3</c></rc>
    <rc><c>O </c><c>   3</c></rc>
   </set>
  </array>
  <array name="atomtypes" >
   <dimension dim="1">type</dimension>
   <field type="int">atomspertype</field>
   <field type="string">element</field>
   <field>mass</field>
   <field>valence</field>
   <field type="string">pseudopotential</field>
   <set>
    <rc><c>   2</c><c>Al</c><c>     26.98200000</c><c>      3.00000000</c><c> PAW_PBE Al 04Jan2001                   </c></rc>
    <rc><c>   2</c><c>Cl</c><c>     35.45300000</c><c>      7.00000000</c><c>  PAW_PBE Cl 17Jan2003                  </c></rc>
    <rc><c>   2</c><c>O </c><c>     16.00000000</c><c>      6.00000000</c><c> PAW_PBE O 08Apr2002                    </c></rc>
   </set>
  </array>
 </atominfo>
 <structure name="initialpos" >
  <crystal>
   <varray name="basis" >
    <v>       3.16990000       0.00000000       0.00000000 </v>
    <v>       0.00000000       3.66075600       0.00000000 </v>
    <v>       0.00000000       0.00000000       8.49548600 </v>
   </varray>
   <i name="volume">     98.58357728 </i>
   <varray name="rec_basis" >
    <v>       0.31546736       0.00000000       0.00000000 </v>
    <v>       0.00000000       0.27316762       0.00000000 </v>
    <v>       0.00000000       0.00000000       0.11770957 </v>
   </varray>
  </crystal>
  <varray name="positions" >
   <v>       0.50000000       0.00000000       0.90206400 </v>
   <v>       0.00000000       0.50000000       0.09793600 </v>
   <v>       0.00000000       0.00000000       0.70368200 </v>
   <v>       0.50000000       0.50000000       0.29631800 </v>
   <v>       0.50000000       0.50000000       0.95431900 </v>
   <v>       0.00000000       0.00000000       0.04568100 </v>
  </varray>
 </structure>
 <calculation>
  <scstep>
   <time name="dav">    0.89    0.89</time>
   <time name="total">    1.03    1.04</time>
   <energy>
    <i name="alphaZ">     33.89270526 </i>
    <i name="ewald">  -1001.75907866 </i>
    <i name="hartreedc">   -778.53196483 </i>
    <i name="XCdc">     45.01381740 </i>
    <i name="pawpsdc">    959.91905696 </i>
    <i name="pawaedc">   -899.93145598 </i>
    <i name="eentropy">      0.00000000 </i>
    <i name="bandstr">    -54.28124452 </i>
    <i name="atom">   1791.23999415 </i>
    <i name="e_fr_energy">     95.56182977 </i>
    <i name="e_wo_entrp">     95.56182977 </i>
    <i name="e_0_energy">     95.56182977 </i>
   </energy>
  </scstep>
  <scstep>
   <time name="dav">    1.23    1.24</time>
   <time name="total">    1.23    1.24</time>
   <energy>
    <i name="e_fr_energy">    -35.97179465 </i>
    <i name="e_wo_entrp">    -35.97179465 </i>
    <i name="e_0_energy">    -35.97179465 </i>
   </energy>
  </scstep>
  <scstep>
   <time name="dav">    0.91    0.92</time>
   <time name="total">    0.91    0.92</time>
   <energy>
    <i name="e_fr_energy">    -38.02953936 </i>
    <i name="e_wo_entrp">    -38.02953936 </i>
    <i name="e_0_energy">    -38.02953936 </i>
   </energy>
  </scstep>
  <scstep>
   <time name="dav">    1.55    1.56</time>
   <time name="total">    1.55    1.56</time>
   <energy>
    <i name="e_fr_energy">    -38.03819119 </i>
    <i name="e_wo_entrp">    -38.03819119 </i>
    <i name="e_0_energy">    -38.03819119 </i>
   </energy>
  </scstep>
  <scstep>
   <time name="dav">    0.86    0.87</time>
   <time name="total">    0.91    0.92</time>
   <energy>
    <i name="e_fr_energy">    -38.03819210 </i>
    <i name="e_wo_entrp">    -38.03819210 </i>
    <i name="e_0_energy">    -38.03819210 </i>
   </energy>
  </scstep>
  <scstep>
   <time name="diag">    0.14    0.14</time>
   <time name="diis">    0.38    0.39</time>
   <time name="orth">    0.01    0.01</time>
   <time name="total">    0.71    0.71</time>
   <energy>
    <i name="e_fr_energy">    -34.95180899 </i>
    <i name="e_wo_entrp">    -34.95180899 </i>
    <i name="e_0_energy">    -34.95180899 </i>
   </energy>
  </scstep>
  <scstep>
   <time name="diag">    0.13    0.13</time>
   <time name="diis">    0.38    0.38</time>
   <time name="orth">    0.01    0.01</time>
   <time name="total">    0.69    0.70</time>
   <energy>
    <i name="e_fr_energy">    -35.16007536 </i>
    <i name="e_wo_entrp">    -35.16007536 </i>
    <i name="e_0_energy">    -35.16007536 </i>
   </energy>
  </scstep>
  <scstep>
   <time name="diag">    0.13    0.13</time>
   <time name="diis">    0.38    0.38</time>
   <time name="orth">    0.01    0.01</time>
   <time name="total">    0.69    0.70</time>
   <energy>
    <i name="e_fr_energy">    -35.19523308 </i>
    <i name="e_wo_entrp">    -35.19523308 </i>
    <i name="e_0_energy">    -35.19523308 </i>
   </energy>
  </scstep>
  <scstep>
   <time name="diag">    0.13    0.13</time>
   <time name="diis">    0.37    0.38</time>
   <time name="orth">    0.01    0.01</time>
   <time name="total">    0.69    0.70</time>
   <energy>
    <i name="e_fr_energy">    -35.19247571 </i>
    <i name="e_wo_entrp">    -35.19247571 </i>
    <i name="e_0_energy">    -35.19247571 </i>
   </energy>
  </scstep>
  <scstep>
   <time name="diag">    0.13    0.13</time>
   <time name="diis">    0.38    0.38</time>
   <time name="orth">    0.01    0.01</time>
   <time name="total">    0.70    0.70</time>
   <energy>
    <i name="e_fr_energy">    -35.19291280 </i>
    <i name="e_wo_entrp">    -35.19291280 </i>
    <i name="e_0_energy">    -35.19291280 </i>
   </energy>
  </scstep>
  <scstep>
   <time name="diag">    0.13    0.13</time>
   <time name="diis">    0.37    0.37</time>
   <time name="orth">    0.01    0.01</time>
   <time name="total">    0.64    0.65</time>
   <energy>
    <i name="alphaZ">     33.89270526 </i>
    <i name="ewald">  -1001.75907866 </i>
    <i name="hartreedc">   -835.95690504 </i>
    <i name="XCdc">     48.46679283 </i>
    <i name="pawpsdc">   1132.09159297 </i>
    <i name="pawaedc">  -1073.06017995 </i>
    <i name="eentropy">      0.00000000 </i>
    <i name="bandstr">   -130.10779950 </i>
    <i name="atom">   1791.23999415 </i>
    <i name="e_fr_energy">    -35.19287795 </i>
    <i name="e_wo_entrp">    -35.19287795 </i>
    <i name="e_0_energy">    -35.19287795 </i>
   </energy>
  </scstep>
  <structure>
   <crystal>
    <varray name="basis" >
     <v>       3.16990000       0.00000000       0.00000000 </v>
     <v>       0.00000000       3.66075600       0.00000000 </v>
     <v>       0.00000000       0.00000000       8.49548600 </v>
    </varray>
    <i name="volume">     98.58357728 </i>
    <varray name="rec_basis" >
     <v>       0.31546736       0.00000000       0.00000000 </v>
     <v>       0.00000000       0.27316762       0.00000000 </v>
     <v>       0.00000000       0.00000000       0.11770957 </v>
    </varray>
   </crystal>
   <varray name="positions" >
    <v>       0.50000000       0.00000000       0.90206400 </v>
    <v>       0.00000000       0.50000000       0.09793600 </v>
    <v>       0.00000000       0.00000000       0.70368200 </v>
    <v>       0.50000000       0.50000000       0.29631800 </v>
    <v>       0.50000000       0.50000000       0.95431900 </v>
    <v>       0.00000000       0.00000000       0.04568100 </v>
   </varray>
  </structure>
  <varray name="forces" >
   <v>      -0.00000000       0.00000000      -0.00114676 </v>
   <v>       0.00000000      -0.00000000       0.00114676 </v>
   <v>       0.00000000      -0.00000000      -0.01699901 </v>
   <v>      -0.00000000       0.00000000       0.01699901 </v>
   <v>       0.00000000       0.00000000       0.00204701 </v>
   <v>      -0.00000000      -0.00000000      -0.00204701 </v>
  </varray>
  <varray name="stress" >
   <v>      -2.23458643       0.00000000       0.00000000 </v>
   <v>       0.00000000      -1.15348372       0.00000000 </v>
   <v>       0.00000000       0.00000000      -0.56002073 </v>
  </varray>
  <energy>
   <i name="e_fr_energy">    -35.19287795 </i>
   <i name="e_wo_entrp">    -35.19287795 </i>
   <i name="e_0_energy">    -35.19287795 </i>
  </energy>
  <time name="totalsc">   11.29   11.36</time>
  <eigenvalues>
   <array>
    <dimension dim="1">band</dimension>
    <dimension dim="2">kpoint</dimension>
    <dimension dim="3">spin</dimension>
    <field>eigene</field>
    <field>occ</field>
    <set>
     <set comment="spin 1">
      <set comment="kpoint 1">
       <r>  -17.1940    1.0000 </r>
       <r>  -14.6495    1.0000 </r>
       <r>  -12.1787    1.0000 </r>
       <r>  -12.0714    1.0000 </r>
       <r>   -4.0540    1.0000 </r>
       <r>   -3.1540    1.0000 </r>
       <r>   -2.1051    1.0000 </r>
       <r>   -1.3144    1.0000 </r>
       <r>   -0.5432    1.0000 </r>
       <r>   -0.2649    1.0000 </r>
       <r>    0.8517    1.0000 </r>
       <r>    1.0731    1.0000 </r>
       <r>    1.1453    1.0000 </r>
       <r>    1.2806    1.0000 </r>
       <r>    1.3367    1.0000 </r>
       <r>    1.3608    1.0000 </r>
       <r>    7.2087    0.0000 </r>
       <r>    8.5651    0.0000 </r>
       <r>    9.6033    0.0000 </r>
       <r>   10.3574    0.0000 </r>
       <r>   10.9825    0.0000 </r>
       <r>   11.8171    0.0000 </r>
       <r>   12.3950    0.0000 </r>
       <r>   12.4225    0.0000 </r>
       <r>   12.5390    0.0000 </r>
       <r>   12.9990    0.0000 </r>
       <r>   13.6222    0.0000 </r>
       <r>   14.1044    0.0000 </r>
       <r>   15.6796    0.0000 </r>
       <r>   15.9383    0.0000 </r>
       <r>   17.8716    0.0000 </r>
       <r>   19.3133    0.0000 </r>
      </set>
      <set comment="kpoint 2">
       <r>  -17.0532    1.0000 </r>
       <r>  -14.7376    1.0000 </r>
       <r>  -12.0634    1.0000 </r>
       <r>  -11.9628    1.0000 </r>
       <r>   -3.8794    1.0000 </r>
       <r>   -3.1508    1.0000 </r>
       <r>   -2.2467    1.0000 </r>
       <r>   -1.4237    1.0000 </r>
       <r>   -0.7174    1.0000 </r>
       <r>   -0.4019    1.0000 </r>
       <r>    0.5508    1.0000 </r>
       <r>    0.5718    1.0000 </r>
       <r>    0.6849    1.0000 </r>
       <r>    1.0992    1.0000 </r>
       <r>    1.2326    1.0000 </r>
       <r>    1.2866    1.0000 </r>
       <r>    7.9162    0.0000 </r>
       <r>    9.3538    0.0000 </r>
       <r>   10.2614    0.0000 </r>
       <r>   10.3786    0.0000 </r>
       <r>   11.3952    0.0000 </r>
       <r>   11.9880    0.0000 </r>
       <r>   12.2409    0.0000 </r>
       <r>   12.5214    0.0000 </r>
       <r>   12.7431    0.0000 </r>
       <r>   13.4036    0.0000 </r>
       <r>   13.5122    0.0000 </r>
       <r>   13.7092    0.0000 </r>
       <r>   15.4255    0.0000 </r>
       <r>   15.5689    0.0000 </r>
       <r>   15.7835    0.0000 </r>
       <r>   18.8627    0.0000 </r>
      </set>
      <set comment="kpoint 3">
       <r>  -16.6586    1.0000 </r>
       <r>  -15.0203    1.0000 </r>
       <r>  -11.7766    1.0000 </r>
       <r>  -11.7004    1.0000 </r>
       <r>   -3.3760    1.0000 </r>
       <r>   -3.2411    1.0000 </r>
       <r>   -2.4478    1.0000 </r>
       <r>   -2.1010    1.0000 </r>
       <r>   -1.4034    1.0000 </r>
       <r>   -0.8994    1.0000 </r>
       <r>   -0.5084    1.0000 </r>
       <r>   -0.0777    1.0000 </r>
       <r>    0.4186    1.0000 </r>
       <r>    1.0425    1.0000 </r>
       <r>    1.3927    1.0000 </r>
       <r>    1.4357    1.0000 </r>
       <r>    8.8625    0.0000 </r>
       <r>    9.5590    0.0000 </r>
       <r>    9.6942    0.0000 </r>
       <r>   11.3226    0.0000 </r>
       <r>   11.9951    0.0000 </r>
       <r>   12.4551    0.0000 </r>
       <r>   12.8671    0.0000 </r>
       <r>   13.1024    0.0000 </r>
       <r>   13.2808    0.0000 </r>
       <r>   13.3167    0.0000 </r>
       <r>   14.2870    0.0000 </r>
       <r>   14.3112    0.0000 </r>
       <r>   14.3167    0.0000 </r>
       <r>   14.5221    0.0000 </r>
       <r>   15.8516    0.0000 </r>
       <r>   17.2693    0.0000 </r>
      </set>
      <set comment="kpoint 4">
       <r>  -16.0957    1.0000 </r>
       <r>  -15.5007    1.0000 </r>
       <r>  -11.5044    1.0000 </r>
       <r>  -11.4751    1.0000 </r>
       <r>   -3.2165    1.0000 </r>
       <r>   -2.8887    1.0000 </r>
       <r>   -2.7326    1.0000 </r>
       <r>   -2.6106    1.0000 </r>
       <r>   -2.3818    1.0000 </r>
       <r>   -1.7145    1.0000 </r>
       <r>   -0.5878    1.0000 </r>
       <r>   -0.1855    1.0000 </r>
       <r>    0.4671    1.0000 </r>
       <r>    0.8279    1.0000 </r>
       <r>    1.5633    1.0000 </r>
       <r>    1.5953    1.0000 </r>
       <r>    8.4642    0.0000 </r>
       <r>    8.6949    0.0000 </r>
       <r>   10.9153    0.0000 </r>
       <r>   11.8640    0.0000 </r>
       <r>   12.1498    0.0000 </r>
       <r>   12.2101    0.0000 </r>
       <r>   12.6001    0.0000 </r>
       <r>   13.2542    0.0000 </r>
       <r>   13.5801    0.0000 </r>
       <r>   13.8224    0.0000 </r>
       <r>   13.9581    0.0000 </r>
       <r>   14.0570    0.0000 </r>
       <r>   14.4549    0.0000 </r>
       <r>   14.8716    0.0000 </r>
       <r>   16.9244    0.0000 </r>
       <r>   17.1803    0.0000 </r>
      </set>
      <set comment="kpoint 5">
       <r>  -17.0355    1.0000 </r>
       <r>  -14.8201    1.0000 </r>
       <r>  -12.1494    1.0000 </r>
       <r>  -12.0411    1.0000 </r>
       <r>   -4.2328    1.0000 </r>
       <r>   -2.6911    1.0000 </r>
       <r>   -1.9387    1.0000 </r>
       <r>   -1.8880    1.0000 </r>
       <r>   -0.6558    1.0000 </r>
       <r>    0.0886    1.0000 </r>
       <r>    0.5944    1.0000 </r>
       <r>    0.6726    1.0000 </r>
       <r>    0.8765    1.0000 </r>
       <r>    1.2045    1.0000 </r>
       <r>    1.3027    1.0000 </r>
       <r>    1.3524    1.0000 </r>
       <r>    7.7862    0.0000 </r>
       <r>    8.8985    0.0000 </r>
       <r>    9.8759    0.0000 </r>
       <r>   10.0821    0.0000 </r>
       <r>   11.1868    0.0000 </r>
       <r>   11.7119    0.0000 </r>
       <r>   12.3778    0.0000 </r>
       <r>   12.8970    0.0000 </r>
       <r>   12.9038    0.0000 </r>
       <r>   13.0580    0.0000 </r>
       <r>   13.7915    0.0000 </r>
       <r>   14.0028    0.0000 </r>
       <r>   15.3018    0.0000 </r>
       <r>   16.3643    0.0000 </r>
       <r>   17.6353    0.0000 </r>
       <r>   18.3054    0.0000 </r>
      </set>
      <set comment="kpoint 6">
       <r>  -16.9023    1.0000 </r>
       <r>  -14.8827    1.0000 </r>
       <r>  -12.0306    1.0000 </r>
       <r>  -11.9324    1.0000 </r>
       <r>   -4.1584    1.0000 </r>
       <r>   -2.9174    1.0000 </r>
       <r>   -2.0288    1.0000 </r>
       <r>   -1.7590    1.0000 </r>
       <r>   -0.6359    1.0000 </r>
       <r>   -0.3552    1.0000 </r>
       <r>    0.2706    1.0000 </r>
       <r>    0.5596    1.0000 </r>
       <r>    0.6985    1.0000 </r>
       <r>    0.7414    1.0000 </r>
       <r>    1.1579    1.0000 </r>
       <r>    1.2226    1.0000 </r>
       <r>    8.3616    0.0000 </r>
       <r>    9.6759    0.0000 </r>
       <r>   10.4517    0.0000 </r>
       <r>   10.7210    0.0000 </r>
       <r>   10.9575    0.0000 </r>
       <r>   11.7258    0.0000 </r>
       <r>   12.4200    0.0000 </r>
       <r>   13.0220    0.0000 </r>
       <r>   13.1767    0.0000 </r>
       <r>   13.2427    0.0000 </r>
       <r>   13.4315    0.0000 </r>
       <r>   13.9318    0.0000 </r>
       <r>   15.1558    0.0000 </r>
       <r>   15.4948    0.0000 </r>
       <r>   15.5147    0.0000 </r>
       <r>   17.8309    0.0000 </r>
      </set>
      <set comment="kpoint 7">
       <r>  -16.5322    1.0000 </r>
       <r>  -15.0971    1.0000 </r>
       <r>  -11.7382    1.0000 </r>
       <r>  -11.6692    1.0000 </r>
       <r>   -4.0896    1.0000 </r>
       <r>   -3.0510    1.0000 </r>
       <r>   -2.6099    1.0000 </r>
       <r>   -1.7012    1.0000 </r>
       <r>   -1.5904    1.0000 </r>
       <r>   -0.5466    1.0000 </r>
       <r>   -0.4717    1.0000 </r>
       <r>    0.0525    1.0000 </r>
       <r>    0.2170    1.0000 </r>
       <r>    0.8478    1.0000 </r>
       <r>    1.2383    1.0000 </r>
       <r>    1.2874    1.0000 </r>
       <r>    9.0743    0.0000 </r>
       <r>    9.5652    0.0000 </r>
       <r>    9.9187    0.0000 </r>
       <r>   11.4882    0.0000 </r>
       <r>   11.5520    0.0000 </r>
       <r>   12.1765    0.0000 </r>
       <r>   12.9720    0.0000 </r>
       <r>   13.0376    0.0000 </r>
       <r>   13.4928    0.0000 </r>
       <r>   13.7396    0.0000 </r>
       <r>   14.1115    0.0000 </r>
       <r>   14.4159    0.0000 </r>
       <r>   14.5242    0.0000 </r>
       <r>   14.5297    0.0000 </r>
       <r>   15.9347    0.0000 </r>
       <r>   17.2072    0.0000 </r>
      </set>
      <set comment="kpoint 8">
       <r>  -16.0160    1.0000 </r>
       <r>  -15.4926    1.0000 </r>
       <r>  -11.4655    1.0000 </r>
       <r>  -11.4406    1.0000 </r>
       <r>   -3.9701    1.0000 </r>
       <r>   -3.4277    1.0000 </r>
       <r>   -2.9534    1.0000 </r>
       <r>   -2.6813    1.0000 </r>
       <r>   -1.6468    1.0000 </r>
       <r>   -1.0872    1.0000 </r>
       <r>   -0.4083    1.0000 </r>
       <r>   -0.1182    1.0000 </r>
       <r>    0.4676    1.0000 </r>
       <r>    0.7977    1.0000 </r>
       <r>    1.2876    1.0000 </r>
       <r>    1.3172    1.0000 </r>
       <r>    8.5862    0.0000 </r>
       <r>    8.6927    0.0000 </r>
       <r>   10.5528    0.0000 </r>
       <r>   11.0582    0.0000 </r>
       <r>   11.8303    0.0000 </r>
       <r>   12.6821    0.0000 </r>
       <r>   12.8389    0.0000 </r>
       <r>   12.9748    0.0000 </r>
       <r>   13.4944    0.0000 </r>
       <r>   14.0360    0.0000 </r>
       <r>   14.2653    0.0000 </r>
       <r>   14.4759    0.0000 </r>
       <r>   14.9755    0.0000 </r>
       <r>   15.2427    0.0000 </r>
       <r>   17.7411    0.0000 </r>
       <r>   17.7577    0.0000 </r>
      </set>
      <set comment="kpoint 9">
       <r>  -16.5912    1.0000 </r>
       <r>  -15.3007    1.0000 </r>
       <r>  -12.0673    1.0000 </r>
       <r>  -11.9886    1.0000 </r>
       <r>   -4.1974    1.0000 </r>
       <r>   -2.8950    1.0000 </r>
       <r>   -1.9546    1.0000 </r>
       <r>   -1.4610    1.0000 </r>
       <r>   -0.6228    1.0000 </r>
       <r>   -0.2705    1.0000 </r>
       <r>    0.0416    1.0000 </r>
       <r>    0.0576    1.0000 </r>
       <r>    0.7010    1.0000 </r>
       <r>    1.0022    1.0000 </r>
       <r>    1.3147    1.0000 </r>
       <r>    1.3766    1.0000 </r>
       <r>    8.8531    0.0000 </r>
       <r>    9.4233    0.0000 </r>
       <r>    9.4564    0.0000 </r>
       <r>   10.4349    0.0000 </r>
       <r>   11.3979    0.0000 </r>
       <r>   11.6617    0.0000 </r>
       <r>   12.6395    0.0000 </r>
       <r>   12.9102    0.0000 </r>
       <r>   13.3951    0.0000 </r>
       <r>   13.6659    0.0000 </r>
       <r>   13.8789    0.0000 </r>
       <r>   14.4270    0.0000 </r>
       <r>   15.8494    0.0000 </r>
       <r>   16.5952    0.0000 </r>
       <r>   16.7663    0.0000 </r>
       <r>   16.8506    0.0000 </r>
      </set>
      <set comment="kpoint 10">
       <r>  -16.4822    1.0000 </r>
       <r>  -15.3013    1.0000 </r>
       <r>  -11.9477    1.0000 </r>
       <r>  -11.8786    1.0000 </r>
       <r>   -4.2629    1.0000 </r>
       <r>   -3.0374    1.0000 </r>
       <r>   -2.4816    1.0000 </r>
       <r>   -1.1041    1.0000 </r>
       <r>   -0.8692    1.0000 </r>
       <r>   -0.3366    1.0000 </r>
       <r>    0.1374    1.0000 </r>
       <r>    0.2112    1.0000 </r>
       <r>    0.5829    1.0000 </r>
       <r>    0.6627    1.0000 </r>
       <r>    0.8584    1.0000 </r>
       <r>    1.0081    1.0000 </r>
       <r>    9.3579    0.0000 </r>
       <r>    9.9679    0.0000 </r>
       <r>   10.0817    0.0000 </r>
       <r>   10.8739    0.0000 </r>
       <r>   11.2099    0.0000 </r>
       <r>   11.6373    0.0000 </r>
       <r>   12.7593    0.0000 </r>
       <r>   12.8976    0.0000 </r>
       <r>   13.0412    0.0000 </r>
       <r>   13.3773    0.0000 </r>
       <r>   13.8027    0.0000 </r>
       <r>   14.3841    0.0000 </r>
       <r>   15.6827    0.0000 </r>
       <r>   15.9665    0.0000 </r>
       <r>   16.0540    0.0000 </r>
       <r>   17.1215    0.0000 </r>
      </set>
      <set comment="kpoint 11">
       <r>  -16.1910    1.0000 </r>
       <r>  -15.3433    1.0000 </r>
       <r>  -11.6540    1.0000 </r>
       <r>  -11.6103    1.0000 </r>
       <r>   -4.5895    1.0000 </r>
       <r>   -3.6832    1.0000 </r>
       <r>   -2.6303    1.0000 </r>
       <r>   -1.5933    1.0000 </r>
       <r>   -0.9376    1.0000 </r>
       <r>   -0.8362    1.0000 </r>
       <r>   -0.1732    1.0000 </r>
       <r>    0.0171    1.0000 </r>
       <r>    0.3711    1.0000 </r>
       <r>    0.5180    1.0000 </r>
       <r>    0.9714    1.0000 </r>
       <r>    0.9749    1.0000 </r>
       <r>    9.5592    0.0000 </r>
       <r>    9.5951    0.0000 </r>
       <r>   10.1104    0.0000 </r>
       <r>   10.8328    0.0000 </r>
       <r>   11.0910    0.0000 </r>
       <r>   11.7329    0.0000 </r>
       <r>   12.4981    0.0000 </r>
       <r>   13.0059    0.0000 </r>
       <r>   13.6677    0.0000 </r>
       <r>   14.6148    0.0000 </r>
       <r>   14.6378    0.0000 </r>
       <r>   14.9068    0.0000 </r>
       <r>   15.6460    0.0000 </r>
       <r>   15.9008    0.0000 </r>
       <r>   16.3227    0.0000 </r>
       <r>   17.2243    0.0000 </r>
      </set>
      <set comment="kpoint 12">
       <r>  -15.8203    1.0000 </r>
       <r>  -15.5082    1.0000 </r>
       <r>  -11.3848    1.0000 </r>
       <r>  -11.3710    1.0000 </r>
       <r>   -4.8114    1.0000 </r>
       <r>   -4.4751    1.0000 </r>
       <r>   -2.5062    1.0000 </r>
       <r>   -2.2866    1.0000 </r>
       <r>   -1.4176    1.0000 </r>
       <r>   -1.2080    1.0000 </r>
       <r>    0.0724    1.0000 </r>
       <r>    0.0797    1.0000 </r>
       <r>    0.5450    1.0000 </r>
       <r>    0.6635    1.0000 </r>
       <r>    0.8751    1.0000 </r>
       <r>    1.0115    1.0000 </r>
       <r>    8.8358    0.0000 </r>
       <r>    8.9048    0.0000 </r>
       <r>    9.6998    0.0000 </r>
       <r>    9.9157    0.0000 </r>
       <r>   11.8870    0.0000 </r>
       <r>   12.1285    0.0000 </r>
       <r>   12.5247    0.0000 </r>
       <r>   12.8292    0.0000 </r>
       <r>   14.4272    0.0000 </r>
       <r>   14.7255    0.0000 </r>
       <r>   14.8535    0.0000 </r>
       <r>   15.4861    0.0000 </r>
       <r>   15.9947    0.0000 </r>
       <r>   16.3225    0.0000 </r>
       <r>   17.7752    0.0000 </r>
       <r>   18.1979    0.0000 </r>
      </set>
      <set comment="kpoint 13">
       <r>  -15.9576    1.0000 </r>
       <r>  -15.9576    1.0000 </r>
       <r>  -11.9908    1.0000 </r>
       <r>  -11.9908    1.0000 </r>
       <r>   -3.7255    1.0000 </r>
       <r>   -3.7255    1.0000 </r>
       <r>   -1.3018    1.0000 </r>
       <r>   -1.3018    1.0000 </r>
       <r>   -0.7447    1.0000 </r>
       <r>   -0.7447    1.0000 </r>
       <r>   -0.1508    1.0000 </r>
       <r>   -0.1508    1.0000 </r>
       <r>    0.7473    1.0000 </r>
       <r>    0.7473    1.0000 </r>
       <r>    1.3657    1.0000 </r>
       <r>    1.3657    1.0000 </r>
       <r>    9.2623    0.0000 </r>
       <r>    9.2623    0.0000 </r>
       <r>   10.0850    0.0000 </r>
       <r>   10.0850    0.0000 </r>
       <r>   11.6260    0.0000 </r>
       <r>   11.6260    0.0000 </r>
       <r>   13.2135    0.0000 </r>
       <r>   13.2135    0.0000 </r>
       <r>   13.2700    0.0000 </r>
       <r>   13.2700    0.0000 </r>
       <r>   14.1458    0.0000 </r>
       <r>   14.1458    0.0000 </r>
       <r>   16.4873    0.0000 </r>
       <r>   16.4874    0.0000 </r>
       <r>   17.0799    0.0000 </r>
       <r>   17.0817    0.0000 </r>
      </set>
      <set comment="kpoint 14">
       <r>  -15.8938    1.0000 </r>
       <r>  -15.8938    1.0000 </r>
       <r>  -11.8764    1.0000 </r>
       <r>  -11.8764    1.0000 </r>
       <r>   -3.8618    1.0000 </r>
       <r>   -3.8618    1.0000 </r>
       <r>   -1.8892    1.0000 </r>
       <r>   -1.8892    1.0000 </r>
       <r>   -0.2401    1.0000 </r>
       <r>   -0.2401    1.0000 </r>
       <r>    0.0501    1.0000 </r>
       <r>    0.0501    1.0000 </r>
       <r>    0.4875    1.0000 </r>
       <r>    0.4875    1.0000 </r>
       <r>    0.8169    1.0000 </r>
       <r>    0.8169    1.0000 </r>
       <r>    9.8435    0.0000 </r>
       <r>    9.8435    0.0000 </r>
       <r>   10.4165    0.0000 </r>
       <r>   10.4165    0.0000 </r>
       <r>   11.5091    0.0000 </r>
       <r>   11.5091    0.0000 </r>
       <r>   12.7551    0.0000 </r>
       <r>   12.7551    0.0000 </r>
       <r>   13.5471    0.0000 </r>
       <r>   13.5471    0.0000 </r>
       <r>   13.7454    0.0000 </r>
       <r>   13.7454    0.0000 </r>
       <r>   16.4389    0.0000 </r>
       <r>   16.4394    0.0000 </r>
       <r>   17.4926    0.0000 </r>
       <r>   17.4935    0.0000 </r>
      </set>
      <set comment="kpoint 15">
       <r>  -15.7445    1.0000 </r>
       <r>  -15.7445    1.0000 </r>
       <r>  -11.5953    1.0000 </r>
       <r>  -11.5953    1.0000 </r>
       <r>   -4.4358    1.0000 </r>
       <r>   -4.4358    1.0000 </r>
       <r>   -2.0391    1.0000 </r>
       <r>   -2.0391    1.0000 </r>
       <r>   -0.9239    1.0000 </r>
       <r>   -0.9239    1.0000 </r>
       <r>    0.1210    1.0000 </r>
       <r>    0.1210    1.0000 </r>
       <r>    0.4638    1.0000 </r>
       <r>    0.4638    1.0000 </r>
       <r>    0.7499    1.0000 </r>
       <r>    0.7499    1.0000 </r>
       <r>    9.7408    0.0000 </r>
       <r>    9.7408    0.0000 </r>
       <r>   10.2300    0.0000 </r>
       <r>   10.2300    0.0000 </r>
       <r>   11.1860    0.0000 </r>
       <r>   11.1860    0.0000 </r>
       <r>   12.5763    0.0000 </r>
       <r>   12.5763    0.0000 </r>
       <r>   14.4349    0.0000 </r>
       <r>   14.4350    0.0000 </r>
       <r>   15.1858    0.0000 </r>
       <r>   15.1860    0.0000 </r>
       <r>   16.1954    0.0000 </r>
       <r>   16.1968    0.0000 </r>
       <r>   17.5298    0.0000 </r>
       <r>   17.5321    0.0000 </r>
      </set>
      <set comment="kpoint 16">
       <r>  -15.6181    1.0000 </r>
       <r>  -15.6181    1.0000 </r>
       <r>  -11.3394    1.0000 </r>
       <r>  -11.3394    1.0000 </r>
       <r>   -5.0002    1.0000 </r>
       <r>   -5.0002    1.0000 </r>
       <r>   -1.9041    1.0000 </r>
       <r>   -1.9041    1.0000 </r>
       <r>   -1.7160    1.0000 </r>
       <r>   -1.7160    1.0000 </r>
       <r>    0.1177    1.0000 </r>
       <r>    0.1177    1.0000 </r>
       <r>    0.6351    1.0000 </r>
       <r>    0.6351    1.0000 </r>
       <r>    0.8922    1.0000 </r>
       <r>    0.8922    1.0000 </r>
       <r>    9.0557    0.0000 </r>
       <r>    9.0557    0.0000 </r>
       <r>    9.3822    0.0000 </r>
       <r>    9.3822    0.0000 </r>
       <r>   11.8248    0.0000 </r>
       <r>   11.8248    0.0000 </r>
       <r>   12.5757    0.0000 </r>
       <r>   12.5757    0.0000 </r>
       <r>   14.9641    0.0000 </r>
       <r>   14.9642    0.0000 </r>
       <r>   15.2965    0.0000 </r>
       <r>   15.2966    0.0000 </r>
       <r>   16.7848    0.0000 </r>
       <r>   16.7848    0.0000 </r>
       <r>   18.1717    0.0000 </r>
       <r>   18.1729    0.0000 </r>
      </set>
      <set comment="kpoint 17">
       <r>  -17.1939    1.0000 </r>
       <r>  -14.6495    1.0000 </r>
       <r>  -12.2319    1.0000 </r>
       <r>  -12.0147    1.0000 </r>
       <r>   -4.0537    1.0000 </r>
       <r>   -3.2864    1.0000 </r>
       <r>   -2.1048    1.0000 </r>
       <r>   -0.9929    1.0000 </r>
       <r>   -0.4211    1.0000 </r>
       <r>   -0.2714    1.0000 </r>
       <r>    0.6497    1.0000 </r>
       <r>    0.8441    1.0000 </r>
       <r>    1.2107    1.0000 </r>
       <r>    1.2238    1.0000 </r>
       <r>    1.3327    1.0000 </r>
       <r>    1.3733    1.0000 </r>
       <r>    7.8712    0.0000 </r>
       <r>    8.3957    0.0000 </r>
       <r>    9.2669    0.0000 </r>
       <r>   10.2996    0.0000 </r>
       <r>   10.9883    0.0000 </r>
       <r>   11.1415    0.0000 </r>
       <r>   12.1401    0.0000 </r>
       <r>   12.2838    0.0000 </r>
       <r>   12.8321    0.0000 </r>
       <r>   13.8926    0.0000 </r>
       <r>   14.0904    0.0000 </r>
       <r>   14.3873    0.0000 </r>
       <r>   14.8491    0.0000 </r>
       <r>   15.9461    0.0000 </r>
       <r>   17.8043    0.0000 </r>
       <r>   19.1451    0.0000 </r>
      </set>
      <set comment="kpoint 18">
       <r>  -17.0531    1.0000 </r>
       <r>  -14.7377    1.0000 </r>
       <r>  -12.1132    1.0000 </r>
       <r>  -11.9100    1.0000 </r>
       <r>   -3.8792    1.0000 </r>
       <r>   -3.2506    1.0000 </r>
       <r>   -2.2537    1.0000 </r>
       <r>   -1.2410    1.0000 </r>
       <r>   -0.5813    1.0000 </r>
       <r>   -0.4052    1.0000 </r>
       <r>    0.3817    1.0000 </r>
       <r>    0.6368    1.0000 </r>
       <r>    0.7107    1.0000 </r>
       <r>    0.8992    1.0000 </r>
       <r>    1.2198    1.0000 </r>
       <r>    1.3049    1.0000 </r>
       <r>    8.3824    0.0000 </r>
       <r>    9.2741    0.0000 </r>
       <r>    9.7162    0.0000 </r>
       <r>   11.0605    0.0000 </r>
       <r>   11.1977    0.0000 </r>
       <r>   11.3296    0.0000 </r>
       <r>   12.0564    0.0000 </r>
       <r>   12.4616    0.0000 </r>
       <r>   12.5780    0.0000 </r>
       <r>   13.2340    0.0000 </r>
       <r>   13.9935    0.0000 </r>
       <r>   14.7705    0.0000 </r>
       <r>   15.2345    0.0000 </r>
       <r>   15.3652    0.0000 </r>
       <r>   16.2359    0.0000 </r>
       <r>   17.5050    0.0000 </r>
      </set>
      <set comment="kpoint 19">
       <r>  -16.6585    1.0000 </r>
       <r>  -15.0203    1.0000 </r>
       <r>  -11.8147    1.0000 </r>
       <r>  -11.6609    1.0000 </r>
       <r>   -3.3758    1.0000 </r>
       <r>   -3.2755    1.0000 </r>
       <r>   -2.4283    1.0000 </r>
       <r>   -2.0394    1.0000 </r>
       <r>   -1.4556    1.0000 </r>
       <r>   -0.8998    1.0000 </r>
       <r>   -0.6668    1.0000 </r>
       <r>    0.1975    1.0000 </r>
       <r>    0.4609    1.0000 </r>
       <r>    0.8821    1.0000 </r>
       <r>    1.3419    1.0000 </r>
       <r>    1.4885    1.0000 </r>
       <r>    8.6299    0.0000 </r>
       <r>    9.6599    0.0000 </r>
       <r>   10.4470    0.0000 </r>
       <r>   11.1725    0.0000 </r>
       <r>   11.7085    0.0000 </r>
       <r>   11.9681    0.0000 </r>
       <r>   12.4883    0.0000 </r>
       <r>   13.0266    0.0000 </r>
       <r>   13.2405    0.0000 </r>
       <r>   13.9444    0.0000 </r>
       <r>   14.0321    0.0000 </r>
       <r>   14.1088    0.0000 </r>
       <r>   14.3517    0.0000 </r>
       <r>   14.7303    0.0000 </r>
       <r>   16.3099    0.0000 </r>
       <r>   17.7717    0.0000 </r>
      </set>
      <set comment="kpoint 20">
       <r>  -16.0957    1.0000 </r>
       <r>  -15.5007    1.0000 </r>
       <r>  -11.5196    1.0000 </r>
       <r>  -11.4601    1.0000 </r>
       <r>   -3.2032    1.0000 </r>
       <r>   -2.8397    1.0000 </r>
       <r>   -2.7198    1.0000 </r>
       <r>   -2.6105    1.0000 </r>
       <r>   -2.4320    1.0000 </r>
       <r>   -1.7145    1.0000 </r>
       <r>   -0.7428    1.0000 </r>
       <r>   -0.2281    1.0000 </r>
       <r>    0.6485    1.0000 </r>
       <r>    0.8473    1.0000 </r>
       <r>    1.5437    1.0000 </r>
       <r>    1.6147    1.0000 </r>
       <r>    8.3794    0.0000 </r>
       <r>    8.7362    0.0000 </r>
       <r>   11.2528    0.0000 </r>
       <r>   11.7761    0.0000 </r>
       <r>   11.9550    0.0000 </r>
       <r>   12.2546    0.0000 </r>
       <r>   12.8930    0.0000 </r>
       <r>   13.1715    0.0000 </r>
       <r>   13.2463    0.0000 </r>
       <r>   13.5656    0.0000 </r>
       <r>   13.5678    0.0000 </r>
       <r>   14.0015    0.0000 </r>
       <r>   14.5780    0.0000 </r>
       <r>   14.6518    0.0000 </r>
       <r>   17.8726    0.0000 </r>
       <r>   18.6193    0.0000 </r>
      </set>
      <set comment="kpoint 21">
       <r>  -17.0355    1.0000 </r>
       <r>  -14.8201    1.0000 </r>
       <r>  -12.1960    1.0000 </r>
       <r>  -11.9916    1.0000 </r>
       <r>   -4.2605    1.0000 </r>
       <r>   -2.7649    1.0000 </r>
       <r>   -1.9385    1.0000 </r>
       <r>   -1.7575    1.0000 </r>
       <r>   -0.4676    1.0000 </r>
       <r>    0.1186    1.0000 </r>
       <r>    0.2727    1.0000 </r>
       <r>    0.6710    1.0000 </r>
       <r>    0.8761    1.0000 </r>
       <r>    1.2321    1.0000 </r>
       <r>    1.2733    1.0000 </r>
       <r>    1.3842    1.0000 </r>
       <r>    8.2674    0.0000 </r>
       <r>    8.6388    0.0000 </r>
       <r>    9.8081    0.0000 </r>
       <r>    9.9970    0.0000 </r>
       <r>   10.9724    0.0000 </r>
       <r>   11.8466    0.0000 </r>
       <r>   12.2924    0.0000 </r>
       <r>   12.4786    0.0000 </r>
       <r>   12.7630    0.0000 </r>
       <r>   13.2737    0.0000 </r>
       <r>   14.2362    0.0000 </r>
       <r>   14.5537    0.0000 </r>
       <r>   14.8847    0.0000 </r>
       <r>   16.3975    0.0000 </r>
       <r>   17.0437    0.0000 </r>
       <r>   18.7138    0.0000 </r>
      </set>
      <set comment="kpoint 22">
       <r>  -16.9021    1.0000 </r>
       <r>  -14.8828    1.0000 </r>
       <r>  -12.0743    1.0000 </r>
       <r>  -11.8864    1.0000 </r>
       <r>   -4.1749    1.0000 </r>
       <r>   -2.9748    1.0000 </r>
       <r>   -1.9410    1.0000 </r>
       <r>   -1.7669    1.0000 </r>
       <r>   -0.5860    1.0000 </r>
       <r>   -0.1790    1.0000 </r>
       <r>    0.2503    1.0000 </r>
       <r>    0.2695    1.0000 </r>
       <r>    0.6877    1.0000 </r>
       <r>    0.7855    1.0000 </r>
       <r>    1.1279    1.0000 </r>
       <r>    1.2670    1.0000 </r>
       <r>    8.7222    0.0000 </r>
       <r>    9.4906    0.0000 </r>
       <r>   10.2377    0.0000 </r>
       <r>   10.7669    0.0000 </r>
       <r>   11.1744    0.0000 </r>
       <r>   11.6814    0.0000 </r>
       <r>   12.2736    0.0000 </r>
       <r>   12.4517    0.0000 </r>
       <r>   12.6227    0.0000 </r>
       <r>   13.2776    0.0000 </r>
       <r>   13.9912    0.0000 </r>
       <r>   14.6834    0.0000 </r>
       <r>   15.1246    0.0000 </r>
       <r>   15.2944    0.0000 </r>
       <r>   16.0467    0.0000 </r>
       <r>   17.3535    0.0000 </r>
      </set>
      <set comment="kpoint 23">
       <r>  -16.5322    1.0000 </r>
       <r>  -15.0971    1.0000 </r>
       <r>  -11.7717    1.0000 </r>
       <r>  -11.6347    1.0000 </r>
       <r>   -4.0885    1.0000 </r>
       <r>   -3.0788    1.0000 </r>
       <r>   -2.5892    1.0000 </r>
       <r>   -1.7028    1.0000 </r>
       <r>   -1.5719    1.0000 </r>
       <r>   -0.5982    1.0000 </r>
       <r>   -0.4835    1.0000 </r>
       <r>    0.0380    1.0000 </r>
       <r>    0.4145    1.0000 </r>
       <r>    0.6750    1.0000 </r>
       <r>    1.2651    1.0000 </r>
       <r>    1.3024    1.0000 </r>
       <r>    8.8779    0.0000 </r>
       <r>    9.6640    0.0000 </r>
       <r>   10.7033    0.0000 </r>
       <r>   10.8962    0.0000 </r>
       <r>   11.7336    0.0000 </r>
       <r>   12.3420    0.0000 </r>
       <r>   12.3925    0.0000 </r>
       <r>   12.4537    0.0000 </r>
       <r>   13.5733    0.0000 </r>
       <r>   13.6329    0.0000 </r>
       <r>   14.1180    0.0000 </r>
       <r>   14.3021    0.0000 </r>
       <r>   14.6724    0.0000 </r>
       <r>   15.1616    0.0000 </r>
       <r>   16.1860    0.0000 </r>
       <r>   17.4968    0.0000 </r>
      </set>
      <set comment="kpoint 24">
       <r>  -16.0160    1.0000 </r>
       <r>  -15.4925    1.0000 </r>
       <r>  -11.4789    1.0000 </r>
       <r>  -11.4275    1.0000 </r>
       <r>   -3.9726    1.0000 </r>
       <r>   -3.4339    1.0000 </r>
       <r>   -2.9106    1.0000 </r>
       <r>   -2.6445    1.0000 </r>
       <r>   -1.7106    1.0000 </r>
       <r>   -1.1515    1.0000 </r>
       <r>   -0.4816    1.0000 </r>
       <r>   -0.1196    1.0000 </r>
       <r>    0.6116    1.0000 </r>
       <r>    0.7897    1.0000 </r>
       <r>    1.3128    1.0000 </r>
       <r>    1.3149    1.0000 </r>
       <r>    8.4302    0.0000 </r>
       <r>    8.6694    0.0000 </r>
       <r>   11.1205    0.0000 </r>
       <r>   11.2758    0.0000 </r>
       <r>   11.5961    0.0000 </r>
       <r>   12.1435    0.0000 </r>
       <r>   12.9640    0.0000 </r>
       <r>   13.0668    0.0000 </r>
       <r>   13.5383    0.0000 </r>
       <r>   13.8901    0.0000 </r>
       <r>   14.0265    0.0000 </r>
       <r>   14.1422    0.0000 </r>
       <r>   15.0575    0.0000 </r>
       <r>   15.1257    0.0000 </r>
       <r>   17.8639    0.0000 </r>
       <r>   18.1496    0.0000 </r>
      </set>
      <set comment="kpoint 25">
       <r>  -16.5911    1.0000 </r>
       <r>  -15.3007    1.0000 </r>
       <r>  -12.0952    1.0000 </r>
       <r>  -11.9600    1.0000 </r>
       <r>   -4.2182    1.0000 </r>
       <r>   -2.8352    1.0000 </r>
       <r>   -1.9350    1.0000 </r>
       <r>   -1.4608    1.0000 </r>
       <r>   -0.7179    1.0000 </r>
       <r>   -0.3020    1.0000 </r>
       <r>   -0.0719    1.0000 </r>
       <r>    0.0576    1.0000 </r>
       <r>    0.7659    1.0000 </r>
       <r>    1.1463    1.0000 </r>
       <r>    1.2965    1.0000 </r>
       <r>    1.3949    1.0000 </r>
       <r>    8.9818    0.0000 </r>
       <r>    9.0708    0.0000 </r>
       <r>    9.6692    0.0000 </r>
       <r>   10.5424    0.0000 </r>
       <r>   10.9994    0.0000 </r>
       <r>   12.4961    0.0000 </r>
       <r>   12.6776    0.0000 </r>
       <r>   12.8028    0.0000 </r>
       <r>   12.8430    0.0000 </r>
       <r>   13.4538    0.0000 </r>
       <r>   13.7924    0.0000 </r>
       <r>   14.1765    0.0000 </r>
       <r>   16.4092    0.0000 </r>
       <r>   16.6126    0.0000 </r>
       <r>   16.7395    0.0000 </r>
       <r>   17.2246    0.0000 </r>
      </set>
      <set comment="kpoint 26">
       <r>  -16.4821    1.0000 </r>
       <r>  -15.3013    1.0000 </r>
       <r>  -11.9738    1.0000 </r>
       <r>  -11.8519    1.0000 </r>
       <r>   -4.2757    1.0000 </r>
       <r>   -3.0027    1.0000 </r>
       <r>   -2.4821    1.0000 </r>
       <r>   -1.0690    1.0000 </r>
       <r>   -0.8554    1.0000 </r>
       <r>   -0.2971    1.0000 </r>
       <r>   -0.1796    1.0000 </r>
       <r>    0.1735    1.0000 </r>
       <r>    0.5953    1.0000 </r>
       <r>    0.6812    1.0000 </r>
       <r>    0.9692    1.0000 </r>
       <r>    1.1369    1.0000 </r>
       <r>    9.3863    0.0000 </r>
       <r>    9.8422    0.0000 </r>
       <r>   10.2234    0.0000 </r>
       <r>   10.6385    0.0000 </r>
       <r>   11.3296    0.0000 </r>
       <r>   12.2551    0.0000 </r>
       <r>   12.4460    0.0000 </r>
       <r>   12.5165    0.0000 </r>
       <r>   12.9600    0.0000 </r>
       <r>   13.3362    0.0000 </r>
       <r>   13.9765    0.0000 </r>
       <r>   14.1707    0.0000 </r>
       <r>   15.5226    0.0000 </r>
       <r>   15.6547    0.0000 </r>
       <r>   16.4855    0.0000 </r>
       <r>   17.5753    0.0000 </r>
      </set>
      <set comment="kpoint 27">
       <r>  -16.1910    1.0000 </r>
       <r>  -15.3433    1.0000 </r>
       <r>  -11.6740    1.0000 </r>
       <r>  -11.5901    1.0000 </r>
       <r>   -4.5899    1.0000 </r>
       <r>   -3.6807    1.0000 </r>
       <r>   -2.6332    1.0000 </r>
       <r>   -1.5306    1.0000 </r>
       <r>   -0.9573    1.0000 </r>
       <r>   -0.8561    1.0000 </r>
       <r>   -0.1828    1.0000 </r>
       <r>   -0.0306    1.0000 </r>
       <r>    0.1811    1.0000 </r>
       <r>    0.6057    1.0000 </r>
       <r>    1.0359    1.0000 </r>
       <r>    1.0623    1.0000 </r>
       <r>    9.4816    0.0000 </r>
       <r>    9.5746    0.0000 </r>
       <r>   10.2426    0.0000 </r>
       <r>   10.9755    0.0000 </r>
       <r>   11.1133    0.0000 </r>
       <r>   11.6485    0.0000 </r>
       <r>   12.3913    0.0000 </r>
       <r>   12.7614    0.0000 </r>
       <r>   14.1572    0.0000 </r>
       <r>   14.2197    0.0000 </r>
       <r>   14.8057    0.0000 </r>
       <r>   14.9186    0.0000 </r>
       <r>   15.2971    0.0000 </r>
       <r>   15.5781    0.0000 </r>
       <r>   16.6134    0.0000 </r>
       <r>   17.3720    0.0000 </r>
      </set>
      <set comment="kpoint 28">
       <r>  -15.8203    1.0000 </r>
       <r>  -15.5082    1.0000 </r>
       <r>  -11.3927    1.0000 </r>
       <r>  -11.3633    1.0000 </r>
       <r>   -4.8103    1.0000 </r>
       <r>   -4.4765    1.0000 </r>
       <r>   -2.4784    1.0000 </r>
       <r>   -2.2595    1.0000 </r>
       <r>   -1.4774    1.0000 </r>
       <r>   -1.2448    1.0000 </r>
       <r>    0.0707    1.0000 </r>
       <r>    0.0812    1.0000 </r>
       <r>    0.6046    1.0000 </r>
       <r>    0.6103    1.0000 </r>
       <r>    0.9133    1.0000 </r>
       <r>    1.0176    1.0000 </r>
       <r>    8.7049    0.0000 </r>
       <r>    8.7105    0.0000 </r>
       <r>   10.0550    0.0000 </r>
       <r>   10.1675    0.0000 </r>
       <r>   11.8267    0.0000 </r>
       <r>   11.8815    0.0000 </r>
       <r>   12.6972    0.0000 </r>
       <r>   12.7777    0.0000 </r>
       <r>   14.3017    0.0000 </r>
       <r>   14.5759    0.0000 </r>
       <r>   15.0809    0.0000 </r>
       <r>   15.2660    0.0000 </r>
       <r>   15.9390    0.0000 </r>
       <r>   16.5981    0.0000 </r>
       <r>   17.3865    0.0000 </r>
       <r>   17.4786    0.0000 </r>
      </set>
      <set comment="kpoint 29">
       <r>  -15.9576    1.0000 </r>
       <r>  -15.9576    1.0000 </r>
       <r>  -11.9911    1.0000 </r>
       <r>  -11.9911    1.0000 </r>
       <r>   -3.7122    1.0000 </r>
       <r>   -3.7122    1.0000 </r>
       <r>   -1.2581    1.0000 </r>
       <r>   -1.2581    1.0000 </r>
[...]
        <r>  0.0001  0.0318  0.0019  0.0008  0.0000  0.0000  0.0000  0.0000  0.0000 </r>
        <r>  0.0096  0.0059  0.0007  0.0026  0.0000  0.0000  0.0000  0.0000  0.0000 </r>
        <r>  0.0261  0.0022  0.0019  0.0071  0.0000  0.0000  0.0000  0.0000  0.0000 </r>
       </set>
      </set>
      <set comment="kpoint 32">
       <set comment="band 1">
        <r>  0.0008  0.0029  0.0002  0.0075  0.0000  0.0000  0.0000  0.0000  0.0000 </r>
        <r>  0.0001  0.0164  0.0000  0.0013  0.0000  0.0000  0.0000  0.0000  0.0000 </r>
        <r>  0.0015  0.0000  0.0002  0.0000  0.0000  0.0000  0.0000  0.0000  0.0000 </r>
        <r>  0.0003  0.0000  0.0000  0.0000  0.0000  0.0000  0.0000  0.0000  0.0000 </r>
        <r>  0.1133  0.0002  0.0001  0.0000  0.0000  0.0000  0.0000  0.0000  0.0000 </r>
        <r>  0.6424  0.0000  0.0008  0.0000  0.0000  0.0000  0.0000  0.0000  0.0000 </r>
       </set>
       <set comment="band 2">
        <r>  0.0001  0.0164  0.0000  0.0013  0.0000  0.0000  0.0000  0.0000  0.0000 </r>
        <r>  0.0008  0.0029  0.0002  0.0075  0.0000  0.0000  0.0000  0.0000  0.0000 </r>
        <r>  0.0003  0.0000  0.0000  0.0000  0.0000  0.0000  0.0000  0.0000  0.0000 </r>
        <r>  0.0015  0.0000  0.0002  0.0000  0.0000  0.0000  0.0000  0.0000  0.0000 </r>
        <r>  0.6424  0.0000  0.0008  0.0000  0.0000  0.0000  0.0000  0.0000  0.0000 </r>
        <r>  0.1133  0.0002  0.0001  0.0000  0.0000  0.0000  0.0000  0.0000  0.0000 </r>
       </set>
       <set comment="band 3">
        <r>  0.0001  0.0001  0.0000  0.0005  0.0000  0.0000  0.0000  0.0000  0.0000 </r>
        <r>  0.0008  0.0000  0.0003  0.0044  0.0000  0.0000  0.0000  0.0000  0.0000 </r>
        <r>  0.0819  0.0000  0.0004  0.0000  0.0000  0.0000  0.0000  0.0000  0.0000 </r>
        <r>  0.7150  0.0000  0.0038  0.0002  0.0000  0.0000  0.0000  0.0000  0.0000 </r>
        <r>  0.0037  0.0000  0.0005  0.0000  0.0000  0.0000  0.0000  0.0000  0.0000 </r>
        <r>  0.0004  0.0001  0.0001  0.0000  0.0000  0.0000  0.0000  0.0000  0.0000 </r>
       </set>
       <set comment="band 4">
        <r>  0.0008  0.0000  0.0003  0.0044  0.0000  0.0000  0.0000  0.0000  0.0000 </r>
        <r>  0.0001  0.0001  0.0000  0.0005  0.0000  0.0000  0.0000  0.0000  0.0000 </r>
        <r>  0.7150  0.0000  0.0038  0.0002  0.0000  0.0000  0.0000  0.0000  0.0000 </r>
        <r>  0.0819  0.0000  0.0004  0.0000  0.0000  0.0000  0.0000  0.0000  0.0000 </r>
        <r>  0.0004  0.0001  0.0001  0.0000  0.0000  0.0000  0.0000  0.0000  0.0000 </r>
        <r>  0.0037  0.0000  0.0005  0.0000  0.0000  0.0000  0.0000  0.0000  0.0000 </r>
       </set>
       <set comment="band 5">
        <r>  0.0020  0.0000  0.0001  0.0000  0.0000  0.0000  0.0000  0.0000  0.0000 </r>
        <r>  0.1479  0.0000  0.0104  0.0004  0.0000  0.0000  0.0000  0.0000  0.0000 </r>
        <r>  0.0000  0.0022  0.0000  0.0003  0.0000  0.0000  0.0000  0.0000  0.0000 </r>
        <r>  0.0015  0.0000  0.0006  0.0221  0.0000  0.0000  0.0000  0.0000  0.0000 </r>
        <r>  0.0023  0.0031  0.0009  0.1680  0.0000  0.0000  0.0000  0.0000  0.0000 </r>
        <r>  0.0000  0.2313  0.0000  0.0023  0.0000  0.0000  0.0000  0.0000  0.0000 </r>
       </set>
       <set comment="band 6">
        <r>  0.1479  0.0000  0.0104  0.0004  0.0000  0.0000  0.0000  0.0000  0.0000 </r>
        <r>  0.0020  0.0000  0.0001  0.0000  0.0000  0.0000  0.0000  0.0000  0.0000 </r>
        <r>  0.0015  0.0000  0.0006  0.0221  0.0000  0.0000  0.0000  0.0000  0.0000 </r>
        <r>  0.0000  0.0022  0.0000  0.0003  0.0000  0.0000  0.0000  0.0000  0.0000 </r>
        <r>  0.0000  0.2313  0.0000  0.0023  0.0000  0.0000  0.0000  0.0000  0.0000 </r>
        <r>  0.0023  0.0031  0.0009  0.1680  0.0000  0.0000  0.0000  0.0000  0.0000 </r>
       </set>
       <set comment="band 7">
        <r>  0.0056  0.0006  0.0159  0.0011  0.0000  0.0000  0.0000  0.0000  0.0000 </r>
        <r>  0.0102  0.0003  0.0292  0.0019  0.0000  0.0000  0.0000  0.0000  0.0000 </r>
        <r>  0.0022  0.0067  0.0053  0.1356  0.0000  0.0000  0.0000  0.0000  0.0000 </r>
        <r>  0.0041  0.0037  0.0098  0.2490  0.0000  0.0000  0.0000  0.0000  0.0000 </r>
        <r>  0.0001  0.0003  0.0203  0.0435  0.0000  0.0000  0.0000  0.0000  0.0000 </r>
        <r>  0.0001  0.0006  0.0110  0.0237  0.0000  0.0000  0.0000  0.0000  0.0000 </r>
       </set>
       <set comment="band 8">
        <r>  0.0102  0.0003  0.0292  0.0019  0.0000  0.0000  0.0000  0.0000  0.0000 </r>
        <r>  0.0056  0.0006  0.0159  0.0011  0.0000  0.0000  0.0000  0.0000  0.0000 </r>
        <r>  0.0041  0.0037  0.0098  0.2490  0.0000  0.0000  0.0000  0.0000  0.0000 </r>
        <r>  0.0022  0.0067  0.0053  0.1356  0.0000  0.0000  0.0000  0.0000  0.0000 </r>
        <r>  0.0001  0.0006  0.0110  0.0237  0.0000  0.0000  0.0000  0.0000  0.0000 </r>
        <r>  0.0001  0.0003  0.0203  0.0435  0.0000  0.0000  0.0000  0.0000  0.0000 </r>
       </set>
       <set comment="band 9">
        <r>  0.0000  0.0022  0.0025  0.0355  0.0000  0.0000  0.0000  0.0000  0.0000 </r>
        <r>  0.0000  0.0065  0.0008  0.0119  0.0000  0.0000  0.0000  0.0000  0.0000 </r>
        <r>  0.0080  0.0005  0.0982  0.0473  0.0000  0.0000  0.0000  0.0000  0.0000 </r>
        <r>  0.0027  0.0015  0.0328  0.0158  0.0000  0.0000  0.0000  0.0000  0.0000 </r>
        <r>  0.0013  0.0019  0.0843  0.0000  0.0000  0.0000  0.0000  0.0000  0.0000 </r>
        <r>  0.0039  0.0006  0.2520  0.0001  0.0000  0.0000  0.0000  0.0000  0.0000 </r>
       </set>
       <set comment="band 10">
        <r>  0.0000  0.0065  0.0008  0.0119  0.0000  0.0000  0.0000  0.0000  0.0000 </r>
        <r>  0.0000  0.0022  0.0025  0.0355  0.0000  0.0000  0.0000  0.0000  0.0000 </r>
        <r>  0.0027  0.0015  0.0328  0.0158  0.0000  0.0000  0.0000  0.0000  0.0000 </r>
        <r>  0.0080  0.0005  0.0982  0.0473  0.0000  0.0000  0.0000  0.0000  0.0000 </r>
        <r>  0.0039  0.0006  0.2520  0.0001  0.0000  0.0000  0.0000  0.0000  0.0000 </r>
        <r>  0.0013  0.0019  0.0843  0.0000  0.0000  0.0000  0.0000  0.0000  0.0000 </r>
       </set>
       <set comment="band 11">
        <r>  0.0020  0.0000  0.0003  0.0008  0.0000  0.0000  0.0000  0.0000  0.0000 </r>
        <r>  0.0010  0.0000  0.0002  0.0004  0.0000  0.0000  0.0000  0.0000  0.0000 </r>
        <r>  0.0007  0.0928  0.0370  0.0187  0.0000  0.0000  0.0000  0.0000  0.0000 </r>
        <r>  0.0004  0.1867  0.0184  0.0093  0.0000  0.0000  0.0000  0.0000  0.0000 </r>
        <r>  0.0001  0.1254  0.0000  0.0296  0.0000  0.0000  0.0000  0.0000  0.0000 </r>
        <r>  0.0002  0.0623  0.0000  0.0595  0.0000  0.0000  0.0000  0.0000  0.0000 </r>
       </set>
       <set comment="band 12">
        <r>  0.0010  0.0000  0.0002  0.0004  0.0000  0.0000  0.0000  0.0000  0.0000 </r>
        <r>  0.0020  0.0000  0.0003  0.0008  0.0000  0.0000  0.0000  0.0000  0.0000 </r>
        <r>  0.0004  0.1867  0.0184  0.0093  0.0000  0.0000  0.0000  0.0000  0.0000 </r>
        <r>  0.0007  0.0928  0.0370  0.0187  0.0000  0.0000  0.0000  0.0000  0.0000 </r>
        <r>  0.0002  0.0623  0.0000  0.0595  0.0000  0.0000  0.0000  0.0000  0.0000 </r>
        <r>  0.0001  0.1254  0.0000  0.0296  0.0000  0.0000  0.0000  0.0000  0.0000 </r>
       </set>
       <set comment="band 13">
        <r>  0.0009  0.0014  0.0018  0.0009  0.0000  0.0000  0.0000  0.0000  0.0000 </r>
        <r>  0.0003  0.0042  0.0006  0.0003  0.0000  0.0000  0.0000  0.0000  0.0000 </r>
        <r>  0.0015  0.0035  0.2320  0.0067  0.0000  0.0000  0.0000  0.0000  0.0000 </r>
        <r>  0.0005  0.0103  0.0793  0.0023  0.0000  0.0000  0.0000  0.0000  0.0000 </r>
        <r>  0.0003  0.0562  0.0480  0.0217  0.0000  0.0000  0.0000  0.0000  0.0000 </r>
        <r>  0.0009  0.0192  0.1403  0.0634  0.0000  0.0000  0.0000  0.0000  0.0000 </r>
       </set>
       <set comment="band 14">
        <r>  0.0003  0.0042  0.0006  0.0003  0.0000  0.0000  0.0000  0.0000  0.0000 </r>
        <r>  0.0009  0.0014  0.0018  0.0009  0.0000  0.0000  0.0000  0.0000  0.0000 </r>
        <r>  0.0005  0.0103  0.0793  0.0023  0.0000  0.0000  0.0000  0.0000  0.0000 </r>
        <r>  0.0015  0.0035  0.2320  0.0067  0.0000  0.0000  0.0000  0.0000  0.0000 </r>
        <r>  0.0009  0.0192  0.1403  0.0634  0.0000  0.0000  0.0000  0.0000  0.0000 </r>
        <r>  0.0003  0.0562  0.0480  0.0217  0.0000  0.0000  0.0000  0.0000  0.0000 </r>
       </set>
       <set comment="band 15">
        <r>  0.0000  0.0001  0.0006  0.0000  0.0000  0.0000  0.0000  0.0000  0.0000 </r>
        <r>  0.0000  0.0002  0.0005  0.0000  0.0000  0.0000  0.0000  0.0000  0.0000 </r>
        <r>  0.0003  0.1286  0.0555  0.0010  0.0000  0.0000  0.0000  0.0000  0.0000 </r>
        <r>  0.0002  0.1709  0.0417  0.0007  0.0000  0.0000  0.0000  0.0000  0.0000 </r>
        <r>  0.0000  0.0577  0.0184  0.0680  0.0000  0.0000  0.0000  0.0000  0.0000 </r>
        <r>  0.0000  0.0434  0.0244  0.0903  0.0000  0.0000  0.0000  0.0000  0.0000 </r>
       </set>
       <set comment="band 16">
        <r>  0.0000  0.0002  0.0005  0.0000  0.0000  0.0000  0.0000  0.0000  0.0000 </r>
        <r>  0.0000  0.0001  0.0006  0.0000  0.0000  0.0000  0.0000  0.0000  0.0000 </r>
        <r>  0.0002  0.1709  0.0417  0.0007  0.0000  0.0000  0.0000  0.0000  0.0000 </r>
        <r>  0.0003  0.1286  0.0555  0.0010  0.0000  0.0000  0.0000  0.0000  0.0000 </r>
        <r>  0.0000  0.0434  0.0244  0.0903  0.0000  0.0000  0.0000  0.0000  0.0000 </r>
        <r>  0.0000  0.0577  0.0184  0.0680  0.0000  0.0000  0.0000  0.0000  0.0000 </r>
       </set>
       <set comment="band 17">
        <r>  0.1566  0.0001  0.0499  0.0045  0.0000  0.0000  0.0000  0.0000  0.0000 </r>
        <r>  0.0233  0.0009  0.0074  0.0007  0.0000  0.0000  0.0000  0.0000  0.0000 </r>
        <r>  0.0000  0.0001  0.0024  0.0701  0.0000  0.0000  0.0000  0.0000  0.0000 </r>
        <r>  0.0000  0.0010  0.0004  0.0104  0.0000  0.0000  0.0000  0.0000  0.0000 </r>
        <r>  0.0001  0.0491  0.0000  0.0000  0.0000  0.0000  0.0000  0.0000  0.0000 </r>
        <r>  0.0009  0.0073  0.0002  0.0003  0.0000  0.0000  0.0000  0.0000  0.0000 </r>
       </set>
       <set comment="band 18">
        <r>  0.0233  0.0009  0.0074  0.0007  0.0000  0.0000  0.0000  0.0000  0.0000 </r>
        <r>  0.1566  0.0001  0.0499  0.0045  0.0000  0.0000  0.0000  0.0000  0.0000 </r>
        <r>  0.0000  0.0010  0.0004  0.0104  0.0000  0.0000  0.0000  0.0000  0.0000 </r>
        <r>  0.0000  0.0001  0.0024  0.0701  0.0000  0.0000  0.0000  0.0000  0.0000 </r>
        <r>  0.0009  0.0073  0.0002  0.0003  0.0000  0.0000  0.0000  0.0000  0.0000 </r>
        <r>  0.0001  0.0491  0.0000  0.0000  0.0000  0.0000  0.0000  0.0000  0.0000 </r>
       </set>
       <set comment="band 19">
        <r>  0.0013  0.0132  0.0000  0.0089  0.0000  0.0000  0.0000  0.0000  0.0000 </r>
        <r>  0.0006  0.0306  0.0000  0.0039  0.0000  0.0000  0.0000  0.0000  0.0000 </r>
        <r>  0.0005  0.0020  0.0142  0.0001  0.0000  0.0000  0.0000  0.0000  0.0000 </r>
        <r>  0.0002  0.0046  0.0061  0.0001  0.0000  0.0000  0.0000  0.0000  0.0000 </r>
        <r>  0.0115  0.0013  0.0075  0.0000  0.0000  0.0000  0.0000  0.0000  0.0000 </r>
        <r>  0.0265  0.0006  0.0174  0.0000  0.0000  0.0000  0.0000  0.0000  0.0000 </r>
       </set>
       <set comment="band 20">
        <r>  0.0006  0.0306  0.0000  0.0039  0.0000  0.0000  0.0000  0.0000  0.0000 </r>
        <r>  0.0013  0.0132  0.0000  0.0089  0.0000  0.0000  0.0000  0.0000  0.0000 </r>
        <r>  0.0002  0.0046  0.0061  0.0001  0.0000  0.0000  0.0000  0.0000  0.0000 </r>
        <r>  0.0005  0.0020  0.0142  0.0001  0.0000  0.0000  0.0000  0.0000  0.0000 </r>
        <r>  0.0265  0.0006  0.0174  0.0000  0.0000  0.0000  0.0000  0.0000  0.0000 </r>
        <r>  0.0115  0.0013  0.0075  0.0000  0.0000  0.0000  0.0000  0.0000  0.0000 </r>
       </set>
       <set comment="band 21">
        <r>  0.0119  0.0026  0.0022  0.0728  0.0000  0.0000  0.0000  0.0000  0.0000 </r>
        <r>  0.0026  0.0118  0.0005  0.0159  0.0000  0.0000  0.0000  0.0000  0.0000 </r>
        <r>  0.0238  0.0001  0.0262  0.0049  0.0000  0.0000  0.0000  0.0000  0.0000 </r>
        <r>  0.0052  0.0005  0.0057  0.0011  0.0000  0.0000  0.0000  0.0000  0.0000 </r>
        <r>  0.0065  0.0120  0.0103  0.0025  0.0000  0.0000  0.0000  0.0000  0.0000 </r>
        <r>  0.0296  0.0026  0.0473  0.0113  0.0000  0.0000  0.0000  0.0000  0.0000 </r>
       </set>
       <set comment="band 22">
        <r>  0.0026  0.0118  0.0005  0.0159  0.0000  0.0000  0.0000  0.0000  0.0000 </r>
        <r>  0.0119  0.0026  0.0022  0.0728  0.0000  0.0000  0.0000  0.0000  0.0000 </r>
        <r>  0.0052  0.0005  0.0057  0.0011  0.0000  0.0000  0.0000  0.0000  0.0000 </r>
        <r>  0.0238  0.0001  0.0262  0.0049  0.0000  0.0000  0.0000  0.0000  0.0000 </r>
        <r>  0.0296  0.0026  0.0473  0.0113  0.0000  0.0000  0.0000  0.0000  0.0000 </r>
        <r>  0.0065  0.0120  0.0103  0.0025  0.0000  0.0000  0.0000  0.0000  0.0000 </r>
       </set>
       <set comment="band 23">
        <r>  0.0002  0.0002  0.0001  0.0007  0.0000  0.0000  0.0000  0.0000  0.0000 </r>
        <r>  0.0071  0.0000  0.0034  0.0258  0.0000  0.0000  0.0000  0.0000  0.0000 </r>
        <r>  0.0002  0.0236  0.0003  0.0003  0.0000  0.0000  0.0000  0.0000  0.0000 </r>
        <r>  0.0057  0.0006  0.0115  0.0121  0.0000  0.0000  0.0000  0.0000  0.0000 </r>
        <r>  0.0024  0.0004  0.0286  0.1053  0.0000  0.0000  0.0000  0.0000  0.0000 </r>
        <r>  0.0001  0.0158  0.0008  0.0028  0.0000  0.0000  0.0000  0.0000  0.0000 </r>
       </set>
       <set comment="band 24">
        <r>  0.0071  0.0000  0.0034  0.0258  0.0000  0.0000  0.0000  0.0000  0.0000 </r>
        <r>  0.0002  0.0002  0.0001  0.0007  0.0000  0.0000  0.0000  0.0000  0.0000 </r>
        <r>  0.0057  0.0006  0.0115  0.0121  0.0000  0.0000  0.0000  0.0000  0.0000 </r>
        <r>  0.0002  0.0236  0.0003  0.0003  0.0000  0.0000  0.0000  0.0000  0.0000 </r>
        <r>  0.0001  0.0158  0.0008  0.0028  0.0000  0.0000  0.0000  0.0000  0.0000 </r>
        <r>  0.0024  0.0004  0.0286  0.1053  0.0000  0.0000  0.0000  0.0000  0.0000 </r>
       </set>
       <set comment="band 25">
        <r>  0.0128  0.0033  0.0008  0.0036  0.0000  0.0000  0.0000  0.0000  0.0000 </r>
        <r>  0.0172  0.0024  0.0010  0.0048  0.0000  0.0000  0.0000  0.0000  0.0000 </r>
        <r>  0.0003  0.0363  0.0027  0.0235  0.0000  0.0000  0.0000  0.0000  0.0000 </r>
        <r>  0.0004  0.0271  0.0036  0.0315  0.0000  0.0000  0.0000  0.0000  0.0000 </r>
        <r>  0.0043  0.0012  0.0028  0.0042  0.0000  0.0000  0.0000  0.0000  0.0000 </r>
        <r>  0.0032  0.0016  0.0021  0.0032  0.0000  0.0000  0.0000  0.0000  0.0000 </r>
       </set>
       <set comment="band 26">
        <r>  0.0172  0.0024  0.0010  0.0048  0.0000  0.0000  0.0000  0.0000  0.0000 </r>
        <r>  0.0128  0.0033  0.0008  0.0036  0.0000  0.0000  0.0000  0.0000  0.0000 </r>
        <r>  0.0004  0.0271  0.0036  0.0315  0.0000  0.0000  0.0000  0.0000  0.0000 </r>
        <r>  0.0003  0.0363  0.0027  0.0235  0.0000  0.0000  0.0000  0.0000  0.0000 </r>
        <r>  0.0032  0.0016  0.0021  0.0032  0.0000  0.0000  0.0000  0.0000  0.0000 </r>
        <r>  0.0043  0.0012  0.0028  0.0042  0.0000  0.0000  0.0000  0.0000  0.0000 </r>
       </set>
       <set comment="band 27">
        <r>  0.0637  0.0007  0.1110  0.0000  0.0000  0.0000  0.0000  0.0000  0.0000 </r>
        <r>  0.0466  0.0009  0.0811  0.0000  0.0000  0.0000  0.0000  0.0000  0.0000 </r>
        <r>  0.0002  0.0011  0.0001  0.0016  0.0000  0.0000  0.0000  0.0000  0.0000 </r>
        <r>  0.0001  0.0016  0.0001  0.0012  0.0000  0.0000  0.0000  0.0000  0.0000 </r>
        <r>  0.0005  0.0513  0.0022  0.0652  0.0000  0.0000  0.0000  0.0000  0.0000 </r>
        <r>  0.0007  0.0375  0.0030  0.0892  0.0000  0.0000  0.0000  0.0000  0.0000 </r>
       </set>
       <set comment="band 28">
        <r>  0.0465  0.0009  0.0811  0.0000  0.0000  0.0000  0.0000  0.0000  0.0000 </r>
        <r>  0.0637  0.0007  0.1110  0.0000  0.0000  0.0000  0.0000  0.0000  0.0000 </r>
        <r>  0.0001  0.0016  0.0001  0.0012  0.0000  0.0000  0.0000  0.0000  0.0000 </r>
        <r>  0.0002  0.0011  0.0001  0.0016  0.0000  0.0000  0.0000  0.0000  0.0000 </r>
        <r>  0.0007  0.0375  0.0030  0.0892  0.0000  0.0000  0.0000  0.0000  0.0000 </r>
        <r>  0.0005  0.0513  0.0022  0.0652  0.0000  0.0000  0.0000  0.0000  0.0000 </r>
       </set>
       <set comment="band 29">
        <r>  0.0000  0.1740  0.0007  0.0123  0.0000  0.0000  0.0000  0.0000  0.0000 </r>
        <r>  0.0000  0.0794  0.0016  0.0269  0.0000  0.0000  0.0000  0.0000  0.0000 </r>
        <r>  0.0014  0.0049  0.0109  0.0002  0.0000  0.0000  0.0000  0.0000  0.0000 </r>
        <r>  0.0032  0.0022  0.0240  0.0003  0.0000  0.0000  0.0000  0.0000  0.0000 </r>
        <r>  0.0245  0.0001  0.0310  0.0008  0.0000  0.0000  0.0000  0.0000  0.0000 </r>
        <r>  0.0112  0.0003  0.0142  0.0004  0.0000  0.0000  0.0000  0.0000  0.0000 </r>
       </set>
       <set comment="band 30">
        <r>  0.0000  0.0794  0.0016  0.0269  0.0000  0.0000  0.0000  0.0000  0.0000 </r>
        <r>  0.0000  0.1741  0.0007  0.0123  0.0000  0.0000  0.0000  0.0000  0.0000 </r>
        <r>  0.0032  0.0022  0.0240  0.0003  0.0000  0.0000  0.0000  0.0000  0.0000 </r>
        <r>  0.0014  0.0048  0.0109  0.0002  0.0000  0.0000  0.0000  0.0000  0.0000 </r>
        <r>  0.0112  0.0003  0.0142  0.0004  0.0000  0.0000  0.0000  0.0000  0.0000 </r>
        <r>  0.0245  0.0001  0.0310  0.0008  0.0000  0.0000  0.0000  0.0000  0.0000 </r>
       </set>
       <set comment="band 31">
        <r>  0.0002  0.0104  0.0018  0.0022  0.0000  0.0000  0.0000  0.0000  0.0000 </r>
        <r>  0.0007  0.0030  0.0064  0.0075  0.0000  0.0000  0.0000  0.0000  0.0000 </r>
        <r>  0.0002  0.0021  0.0066  0.0053  0.0000  0.0000  0.0000  0.0000  0.0000 </r>
        <r>  0.0008  0.0006  0.0231  0.0184  0.0000  0.0000  0.0000  0.0000  0.0000 </r>
        <r>  0.0088  0.0002  0.0288  0.0041  0.0000  0.0000  0.0000  0.0000  0.0000 </r>
        <r>  0.0025  0.0008  0.0082  0.0012  0.0000  0.0000  0.0000  0.0000  0.0000 </r>
       </set>
       <set comment="band 32">
        <r>  0.0007  0.0030  0.0064  0.0075  0.0000  0.0000  0.0000  0.0000  0.0000 </r>
        <r>  0.0002  0.0104  0.0018  0.0022  0.0000  0.0000  0.0000  0.0000  0.0000 </r>
        <r>  0.0008  0.0006  0.0231  0.0183  0.0000  0.0000  0.0000  0.0000  0.0000 </r>
        <r>  0.0002  0.0021  0.0066  0.0053  0.0000  0.0000  0.0000  0.0000  0.0000 </r>
        <r>  0.0025  0.0008  0.0082  0.0012  0.0000  0.0000  0.0000  0.0000  0.0000 </r>
        <r>  0.0088  0.0002  0.0288  0.0041  0.0000  0.0000  0.0000  0.0000  0.0000 </r>
       </set>
      </set>
     </set>
    </set>
   </array>
  </projected>
 </calculation>
 <structure name="finalpos" >
  <crystal>
   <varray name="basis" >
    <v>       3.16990000       0.00000000       0.00000000 </v>
    <v>       0.00000000       3.66075600       0.00000000 </v>
    <v>       0.00000000       0.00000000       8.49548600 </v>
   </varray>
   <i name="volume">     98.58357728 </i>
   <varray name="rec_basis" >
    <v>       0.31546736       0.00000000       0.00000000 </v>
    <v>       0.00000000       0.27316762       0.00000000 </v>
    <v>       0.00000000       0.00000000       0.11770957 </v>
   </varray>
  </crystal>
  <varray name="positions" >
   <v>       0.50000000       0.00000000       0.90206400 </v>
   <v>       0.00000000       0.50000000       0.09793600 </v>
   <v>       0.00000000       0.00000000       0.70368200 </v>
   <v>       0.50000000       0.50000000       0.29631800 </v>
   <v>       0.50000000       0.50000000       0.95431900 </v>
   <v>       0.00000000       0.00000000       0.04568100 </v>
  </varray>
 </structure>
</modeling>
