<?xml version="1.0" encoding="ISO-8859-1"?>
<modeling>
 <generator>
  <i name="program" type="string">vasp </i>
  <i name="version" type="string">6.4.3  </i>
  <i name="subversion" type="string">19Mar24 (build Oct 16 2024 18:29:25) complex                          parallel </i>
  <i name="platform" type="string">LinuxIFC </i>
  <i name="date" type="string">2025 08 12 </i>
  <i name="time" type="string">17:44:22 </i>
 </generator>
 <incar>
  <i type="string" name="PREC">Accurate</i>
  <i type="string" name="ALGO">Fast</i>
  <i type="int" name="ISPIN">     2</i>
  <i type="int" name="NELM">   100</i>
  <i type="int" name="IBRION">     2</i>
  <i name="EDIFF">      0.00020000</i>
  <i type="int" name="NSW">    99</i>
  <i type="int" name="ISIF">     3</i>
  <i name="ENCUT">    520.00000000</i>
  <v name="MAGMOM">      0.60000000      0.60000000      0.60000000      0.60000000</v>
  <i type="string" name="LREAL">Auto</i>
  <i type="int" name="ISMEAR">     1</i>
  <i name="SIGMA">      0.20000000</i>
  <i type="logical" name="LWAVE"> F  </i>
  <i type="int" name="LORBIT">    11</i>
  <i type="logical" name="LASPH"> T  </i>
 </incar>
 <primitive_cell>
  <structure name="primitive_cell" >
   <crystal>
    <varray name="basis" >
     <v>       1.42857300      -2.47436200       0.00000000 </v>
     <v>       1.42857300       2.47436200       0.00000000 </v>
     <v>       0.00000000       0.00000000       9.29698500 </v>
    </varray>
    <i name="volume">     65.72609058 </i>
    <varray name="rec_basis" >
     <v>       0.34999962      -0.20207229       0.00000000 </v>
     <v>       0.34999962       0.20207229       0.00000000 </v>
     <v>       0.00000000       0.00000000       0.10756175 </v>
    </varray>
   </crystal>
   <varray name="positions" >
    <v>       0.00000000       0.00000000       0.00000000 </v>
    <v>       0.33333300       0.66666700       0.25000000 </v>
    <v>       0.00000000       0.00000000       0.50000000 </v>
    <v>       0.66666700       0.33333300       0.75000000 </v>
   </varray>
  </structure>
  <varray name="primitive_index" >
   <v type="int" >        1 </v>
   <v type="int" >        2 </v>
   <v type="int" >        3 </v>
   <v type="int" >        4 </v>
  </varray>
 </primitive_cell>
 <kpoints>
  <generation param="Gamma">
   <v type="int" name="divisions">      13       13        4 </v>
   <v name="usershift">      0.00000000       0.00000000       0.00000000 </v>
   <v name="genvec1">      0.07692308      -0.00000000       0.00000000 </v>
   <v name="genvec2">     -0.00000000       0.07692308       0.00000000 </v>
   <v name="genvec3">      0.00000000       0.00000000       0.25000000 </v>
   <v name="shift">      0.00000000       0.00000000       0.00000000 </v>
  </generation>
  <varray name="kpointlist" >
   <v>       0.00000000       0.00000000       0.00000000 </v>
   <v>       0.07692308       0.00000000       0.00000000 </v>
   <v>       0.15384615       0.00000000       0.00000000 </v>
   <v>       0.23076923       0.00000000       0.00000000 </v>
   <v>       0.30769231       0.00000000       0.00000000 </v>
   <v>       0.38461538       0.00000000       0.00000000 </v>
   <v>       0.46153846       0.00000000       0.00000000 </v>
   <v>       0.07692308       0.07692308       0.00000000 </v>
   <v>       0.15384615       0.07692308       0.00000000 </v>
   <v>       0.23076923       0.07692308       0.00000000 </v>
   <v>       0.30769231       0.07692308       0.00000000 </v>
   <v>       0.38461538       0.07692308       0.00000000 </v>
   <v>       0.46153846       0.07692308       0.00000000 </v>
   <v>       0.15384615       0.15384615       0.00000000 </v>
   <v>       0.23076923       0.15384615       0.00000000 </v>
   <v>       0.30769231       0.15384615       0.00000000 </v>
   <v>       0.38461538       0.15384615       0.00000000 </v>
   <v>       0.23076923       0.23076923       0.00000000 </v>
   <v>       0.30769231       0.23076923       0.00000000 </v>
   <v>       0.38461538       0.23076923       0.00000000 </v>
   <v>       0.30769231       0.30769231       0.00000000 </v>
   <v>       0.00000000       0.00000000       0.25000000 </v>
   <v>       0.07692308       0.00000000       0.25000000 </v>
   <v>       0.15384615       0.00000000       0.25000000 </v>
   <v>       0.23076923       0.00000000       0.25000000 </v>
   <v>       0.30769231       0.00000000       0.25000000 </v>
   <v>       0.38461538       0.00000000       0.25000000 </v>
   <v>       0.46153846       0.00000000       0.25000000 </v>
   <v>       0.07692308       0.07692308       0.25000000 </v>
   <v>       0.15384615       0.07692308       0.25000000 </v>
   <v>       0.23076923       0.07692308       0.25000000 </v>
   <v>       0.30769231       0.07692308       0.25000000 </v>
   <v>       0.38461538       0.07692308       0.25000000 </v>
   <v>       0.46153846       0.07692308       0.25000000 </v>
   <v>       0.15384615       0.15384615       0.25000000 </v>
   <v>       0.23076923       0.15384615       0.25000000 </v>
   <v>       0.30769231       0.15384615       0.25000000 </v>
   <v>       0.38461538       0.15384615       0.25000000 </v>
   <v>       0.23076923       0.23076923       0.25000000 </v>
   <v>       0.30769231       0.23076923       0.25000000 </v>
   <v>       0.38461538       0.23076923       0.25000000 </v>
   <v>       0.30769231       0.30769231       0.25000000 </v>
   <v>       0.00000000       0.00000000       0.50000000 </v>
   <v>       0.07692308       0.00000000       0.50000000 </v>
   <v>       0.15384615       0.00000000       0.50000000 </v>
   <v>       0.23076923       0.00000000       0.50000000 </v>
   <v>       0.30769231       0.00000000       0.50000000 </v>
   <v>       0.38461538       0.00000000       0.50000000 </v>
   <v>       0.46153846       0.00000000       0.50000000 </v>
   <v>       0.07692308       0.07692308       0.50000000 </v>
   <v>       0.15384615       0.07692308       0.50000000 </v>
   <v>       0.23076923       0.07692308       0.50000000 </v>
   <v>       0.30769231       0.07692308       0.50000000 </v>
   <v>       0.38461538       0.07692308       0.50000000 </v>
   <v>       0.46153846       0.07692308       0.50000000 </v>
   <v>       0.15384615       0.15384615       0.50000000 </v>
   <v>       0.23076923       0.15384615       0.50000000 </v>
   <v>       0.30769231       0.15384615       0.50000000 </v>
   <v>       0.38461538       0.15384615       0.50000000 </v>
   <v>       0.23076923       0.23076923       0.50000000 </v>
   <v>       0.30769231       0.23076923       0.50000000 </v>
   <v>       0.38461538       0.23076923       0.50000000 </v>
   <v>       0.30769231       0.30769231       0.50000000 </v>
  </varray>
  <varray name="weights" >
   <v>       0.00147929 </v>
   <v>       0.00887574 </v>
   <v>       0.00887574 </v>
   <v>       0.00887574 </v>
   <v>       0.00887574 </v>
   <v>       0.00887574 </v>
   <v>       0.00887574 </v>
   <v>       0.00887574 </v>
   <v>       0.01775148 </v>
   <v>       0.01775148 </v>
   <v>       0.01775148 </v>
   <v>       0.01775148 </v>
   <v>       0.00887574 </v>
   <v>       0.00887574 </v>
   <v>       0.01775148 </v>
   <v>       0.01775148 </v>
   <v>       0.01775148 </v>
   <v>       0.00887574 </v>
   <v>       0.01775148 </v>
   <v>       0.00887574 </v>
   <v>       0.00887574 </v>
   <v>       0.00295858 </v>
   <v>       0.01775148 </v>
   <v>       0.01775148 </v>
   <v>       0.01775148 </v>
   <v>       0.01775148 </v>
   <v>       0.01775148 </v>
   <v>       0.01775148 </v>
   <v>       0.01775148 </v>
   <v>       0.03550296 </v>
   <v>       0.03550296 </v>
   <v>       0.03550296 </v>
   <v>       0.03550296 </v>
   <v>       0.01775148 </v>
   <v>       0.01775148 </v>
   <v>       0.03550296 </v>
   <v>       0.03550296 </v>
   <v>       0.03550296 </v>
   <v>       0.01775148 </v>
   <v>       0.03550296 </v>
   <v>       0.01775148 </v>
   <v>       0.01775148 </v>
   <v>       0.00147929 </v>
   <v>       0.00887574 </v>
   <v>       0.00887574 </v>
   <v>       0.00887574 </v>
   <v>       0.00887574 </v>
   <v>       0.00887574 </v>
   <v>       0.00887574 </v>
   <v>       0.00887574 </v>
   <v>       0.01775148 </v>
   <v>       0.01775148 </v>
   <v>       0.01775148 </v>
   <v>       0.01775148 </v>
   <v>       0.00887574 </v>
   <v>       0.00887574 </v>
   <v>       0.01775148 </v>
   <v>       0.01775148 </v>
   <v>       0.01775148 </v>
   <v>       0.00887574 </v>
   <v>       0.01775148 </v>
   <v>       0.00887574 </v>
   <v>       0.00887574 </v>
  </varray>
 </kpoints>
 <parameters>
  <separator name="general" >
   <i type="string" name="SYSTEM">unknown system</i>
   <i type="logical" name="LCOMPAT"> F  </i>
  </separator>
  <separator name="electronic" >
   <i type="string" name="PREC">accura</i>
   <i name="ENMAX">    520.00000000</i>
   <i name="ENAUG">    291.05200000</i>
   <i name="EDIFF">      0.00020000</i>
   <i type="int" name="IALGO">    68</i>
   <i type="int" name="IWAVPR">    11</i>
   <i type="int" name="NBANDS">    32</i>
   <i type="int" name="NBANDSLOW">    -1</i>
   <i type="int" name="NBANDSHIGH">    -1</i>
   <i name="NELECT">     12.00000000</i>
   <i type="int" name="TURBO">     0</i>
   <i type="int" name="IRESTART">     0</i>
   <i type="int" name="NREBOOT">     0</i>
   <i type="int" name="NMIN">     0</i>
   <i name="EREF">      0.00000000</i>
   <separator name="electronic smearing" >
    <i type="int" name="ISMEAR">     1</i>
    <i name="SIGMA">      0.20000000</i>
    <i name="KSPACING">      0.50000000</i>
    <i type="logical" name="KGAMMA"> T  </i>
    <i type="logical" name="KBLOWUP"> T  </i>
   </separator>
   <separator name="electronic projectors" >
    <i type="logical" name="LREAL"> T  </i>
    <v name="ROPT">     -0.00025000</v>
    <i type="int" name="LMAXPAW">  -100</i>
    <i type="int" name="LMAXMIX">     2</i>
    <i type="logical" name="NLSPLINE"> F  </i>
   </separator>
   <separator name="electronic startup" >
    <i type="int" name="ISTART">     0</i>
    <i type="int" name="ICHARG">     2</i>
    <i type="int" name="INIWAV">     1</i>
   </separator>
   <separator name="electronic spin" >
    <i type="int" name="ISPIN">     2</i>
    <i type="logical" name="LNONCOLLINEAR"> F  </i>
    <v name="MAGMOM">      0.60000000      0.60000000      0.60000000      0.60000000</v>
    <i name="NUPDOWN">     -1.00000000</i>
    <i type="logical" name="LSORBIT"> F  </i>
    <v name="SAXIS">      0.00000000      0.00000000      1.00000000</v>
    <i type="logical" name="LSPIRAL"> F  </i>
    <v name="QSPIRAL">      0.00000000      0.00000000      0.00000000</v>
    <i type="logical" name="LZEROZ"> F  </i>
   </separator>
   <separator name="electronic exchange-correlation" >
    <i type="logical" name="LASPH"> T  </i>
   </separator>
   <separator name="electronic convergence" >
    <i type="int" name="NELM">   100</i>
    <i type="int" name="NELMDL">    -5</i>
    <i type="int" name="NELMIN">     2</i>
    <i name="ENINI">    520.00000000</i>
    <separator name="electronic convergence detail" >
     <i type="logical" name="LDIAG"> T  </i>
     <i type="logical" name="LSUBROT"> F  </i>
     <i name="WEIMIN">      0.00100000</i>
     <i name="EBREAK">      0.00000156</i>
     <i name="DEPER">      0.30000000</i>
     <i type="int" name="NRMM">     4</i>
     <i name="TIME">      0.40000000</i>
    </separator>
   </separator>
   <separator name="electronic mixer" >
    <i name="AMIX">      0.40000000</i>
    <i name="BMIX">      1.00000000</i>
    <i name="AMIN">      0.10000000</i>
    <i name="AMIX_MAG">      1.60000000</i>
    <i name="BMIX_MAG">      1.00000000</i>
    <separator name="electronic mixer details" >
     <i type="int" name="IMIX">     4</i>
     <i type="logical" name="MIXFIRST"> F  </i>
     <i type="int" name="MAXMIX">   -45</i>
     <i name="WC">    100.00000000</i>
     <i type="int" name="INIMIX">     1</i>
     <i type="int" name="MIXPRE">     1</i>
     <i type="int" name="MREMOVE">     5</i>
    </separator>
   </separator>
   <separator name="electronic dipolcorrection" >
    <i type="logical" name="LDIPOL"> F  </i>
    <i type="logical" name="LMONO"> F  </i>
    <i type="int" name="IDIPOL">     0</i>
    <i name="EPSILON">      1.00000000</i>
    <v name="DIPOL">   -100.00000000   -100.00000000   -100.00000000</v>
    <i name="EFIELD">      0.00000000</i>
    <i type="logical" name="LVACPOTAV"> F  </i>
   </separator>
  </separator>
  <separator name="grids" >
   <i type="int" name="NGX">    24</i>
   <i type="int" name="NGY">    24</i>
   <i type="int" name="NGZ">    70</i>
   <i type="int" name="NGXF">    48</i>
   <i type="int" name="NGYF">    48</i>
   <i type="int" name="NGZF">   140</i>
   <i type="logical" name="ADDGRID"> F  </i>
  </separator>
  <separator name="ionic" >
   <i type="int" name="NSW">    99</i>
   <i type="int" name="IBRION">     2</i>
   <i type="int" name="MDALGO">     0</i>
   <i type="int" name="ISIF">     3</i>
   <i name="PSTRESS">      0.00000000</i>
   <i name="EDIFFG">      0.00200000</i>
   <i type="int" name="NFREE">     1</i>
   <i name="POTIM">      0.50000000</i>
   <i name="SMASS">     -3.00000000</i>
   <i name="SCALEE">      1.00000000</i>
  </separator>
  <separator name="ionic md" >
   <i name="TEBEG">      0.00010000</i>
   <i name="TEEND">      0.00010000</i>
   <i type="int" name="NBLOCK">     1</i>
   <i type="int" name="KBLOCK">    99</i>
   <i type="int" name="NPACO">   256</i>
   <i name="APACO">     10.00000000</i>
  </separator>
  <separator name="symmetry" >
   <i type="int" name="ISYM">     2</i>
   <i name="SYMPREC">      0.00001000</i>
  </separator>
  <separator name="dos" >
   <i type="int" name="LORBIT">    11</i>
   <v name="RWIGS">     -1.00000000</v>
   <i type="int" name="NEDOS">   301</i>
   <i name="EMIN">     10.00000000</i>
   <i name="EMAX">    -10.00000000</i>
   <i name="EFERMI">      0.00000000</i>
  </separator>
  <separator name="writing" >
   <i type="int" name="NWRITE">     2</i>
   <i type="logical" name="LWAVE"> F  </i>
   <i type="logical" name="LDOWNSAMPLE"> F  </i>
   <i type="logical" name="LCHARG"> T  </i>
   <i type="logical" name="LPARD"> F  </i>
   <i type="logical" name="LVTOT"> F  </i>
   <i type="logical" name="LVHAR"> F  </i>
   <i type="logical" name="LELF"> F  </i>
   <i type="logical" name="LOPTICS"> F  </i>
   <v name="STM">      0.00000000      0.00000000      0.00000000      0.00000000      0.00000000      0.00000000      0.00000000</v>
  </separator>
  <separator name="performance" >
   <i type="int" name="NPAR">    32</i>
   <i type="int" name="NSIM">     4</i>
   <i type="int" name="NBLK">    -1</i>
   <i type="logical" name="LPLANE"> T  </i>
   <i type="logical" name="LSCALAPACK"> T  </i>
   <i type="logical" name="LSCAAWARE"> F  </i>
   <i type="logical" name="LSCALU"> F  </i>
   <i type="logical" name="LASYNC"> F  </i>
   <i type="logical" name="LORBITALREAL"> F  </i>
  </separator>
  <separator name="miscellaneous" >
   <i type="int" name="IDIOT">     3</i>
   <i type="int" name="PHON_NSTRUCT">    -1</i>
   <i type="logical" name="LMUSIC"> F  </i>
   <v name="POMASS">     26.98200000</v>
   <v name="DARWINR">      0.00000000</v>
   <v name="DARWINV">      1.00000000</v>
   <i type="logical" name="LCORR"> T  </i>
  </separator>
  <i type="logical" name="GGA_COMPAT"> T  </i>
  <i type="logical" name="LBERRY"> F  </i>
  <i type="int" name="ICORELEVEL">     0</i>
  <i type="logical" name="LDAU"> F  </i>
  <i type="int" name="I_CONSTRAINED_M">     0</i>
  <separator name="electronic exchange-correlation" >
   <i type="string" name="GGA    ">PE</i>
   <i type="string" name="XC_C">1</i>
   <i type="int" name="VOSKOWN">     0</i>
   <i type="logical" name="LHFCALC"> F  </i>
   <i type="string" name="PRECFOCK"></i>
   <i type="logical" name="LSYMGRAD"> F  </i>
   <i type="logical" name="LHFONE"> F  </i>
   <i type="logical" name="LRHFCALC"> F  </i>
   <i type="logical" name="LTHOMAS"> F  </i>
   <i type="logical" name="LMODELHF"> F  </i>
   <i type="logical" name="LFOCKACE"> F  </i>
   <i name="ENCUT4O">     -1.00000000</i>
   <i type="int" name="EXXOEP">     0</i>
   <i type="int" name="FOURORBIT">     0</i>
   <i name="AEXX">      0.00000000</i>
   <i name="HFALPHA">      0.00000000</i>
   <i name="MCALPHA">      0.00000000</i>
   <i name="ALDAX">      1.00000000</i>
   <i name="AGGAX">      1.00000000</i>
   <i name="AMGGAX">      1.00000000</i>
   <i name="ALDAC">      1.00000000</i>
   <i name="AGGAC">      1.00000000</i>
   <i name="AMGGAC">      1.00000000</i>
   <i type="int" name="NKREDX">     1</i>
   <i type="int" name="NKREDY">     1</i>
   <i type="int" name="NKREDZ">     1</i>
   <i type="logical" name="SHIFTRED"> F  </i>
   <i type="logical" name="ODDONLY"> F  </i>
   <i type="logical" name="EVENONLY"> F  </i>
   <i type="int" name="LMAXFOCK">     0</i>
   <i type="int" name="NMAXFOCKAE">     0</i>
   <i type="logical" name="LFOCKAEDFT"> F  </i>
   <i name="HFSCREEN">      0.00000000</i>
   <i name="HFSCREENC">      0.00000000</i>
   <i type="int" name="NBANDSGWLOW">     0</i>
  </separator>
  <separator name="vdW DFT" >
   <i type="logical" name="LUSE_VDW"> F  </i>
   <i type="int" name="IVDW_NL">    -1</i>
   <i type="logical" name="LSPIN_VDW"> F  </i>
   <i name="ZAB_VDW">     -0.84910000</i>
   <i name="GAMMA_VDW">      1.39626340</i>
   <i name="ALPHA_VDW">      0.00000000</i>
   <i name="PARAM1">      0.12340000</i>
   <i name="PARAM2">      1.00000000</i>
   <i name="BPARAM">      6.30000000</i>
   <i name="CPARAM">      0.00930000</i>
  </separator>
  <separator name="model GW" >
   <i type="int" name="MODEL_GW">     0</i>
   <i name="MODEL_EPS0">      9.85891359</i>
   <i name="MODEL_ALPHA">      1.00000000</i>
  </separator>
  <separator name="linear response parameters" >
   <i type="logical" name="LEPSILON"> F  </i>
   <i type="logical" name="LRPA"> F  </i>
   <i type="logical" name="LNABLA"> F  </i>
   <i type="logical" name="LVEL"> F  </i>
   <i name="CSHIFT">      0.10000000</i>
   <i name="OMEGAMAX">     -1.00000000</i>
   <i name="DEG_THRESHOLD">      0.00200000</i>
   <i name="RTIME">     -0.10000000</i>
   <i name="WPLASMAI">      0.00000000</i>
   <v name="DFIELD">      0.00000000      0.00000000      0.00000000</v>
   <v name="WPLASMA">      0.00000000      0.00000000      0.00000000      0.00000000      0.00000000      0.00000000      0.00000000      0.00000000      0.00000000</v>
  </separator>
  <separator name="orbital magnetization" >
   <i type="logical" name="NUCIND"> F  </i>
   <v name="MAGPOS">      0.00000000      0.00000000      0.00000000</v>
   <i type="logical" name="LNICSALL"> T  </i>
   <i type="logical" name="ORBITALMAG"> F  </i>
   <i type="logical" name="LMAGBLOCH"> F  </i>
   <i type="logical" name="LCHIMAG"> F  </i>
   <i type="logical" name="LGAUGE"> T  </i>
   <i type="int" name="MAGATOM">     0</i>
   <v name="MAGDIPOL">      0.00000000      0.00000000      0.00000000</v>
   <v name="AVECCONST">      0.00000000      0.00000000      0.00000000</v>
  </separator>
  <separator name="response functions" >
   <i type="logical" name="LALL_IN_ONE"> F  </i>
   <i type="int" name="IALL_IN_ONE">    -1</i>
   <i type="int" name="NBANDS_WAVE">    -1</i>
   <i type="logical" name="LFINITE_TEMPERATURE"> F  </i>
   <i type="logical" name="LADDER"> F  </i>
   <i type="logical" name="LRPAFORCE"> F  </i>
   <i type="logical" name="LFXC"> F  </i>
   <i type="logical" name="LHARTREE"> T  </i>
   <i type="int" name="IBSE">     0</i>
   <v type="int" name="KPOINT">    -1     0     0     0</v>
   <i type="logical" name="LTCTC"> F  </i>
   <i type="logical" name="LTCTE"> F  </i>
   <i type="logical" name="LTETE"> F  </i>
   <i type="logical" name="LTRIPLET"> F  </i>
   <i type="logical" name="LFXCEPS"> F  </i>
   <i type="logical" name="LFXHEG"> F  </i>
   <i type="int" name="NATURALO">     2</i>
   <i type="logical" name="LHOLEGF"> F  </i>
   <i type="logical" name="L2ORDER"> F  </i>
   <i type="logical" name="LDMP1"> F  </i>
   <i type="logical" name="LMP2LT"> F  </i>
   <i type="logical" name="LSMP2LT"> F  </i>
   <i type="logical" name="LGWLF"> F  </i>
   <i name="ENCUTGW">     -1.60000002</i>
   <i name="ENCUTGWSOFT">     -1.60000002</i>
   <i name="ENCUTLF">     -1.00000000</i>
   <i type="logical" name="ESF_SPLINES"> F  </i>
   <i name="ESF_CONV">      0.01000000</i>
   <i type="int" name="ESF_NINTER">    15</i>
   <i type="int" name="LMAXMP2">    -1</i>
   <i name="SCISSOR">      0.00000000</i>
   <i type="int" name="NOMEGA">     0</i>
   <i type="int" name="NOMEGAR">     0</i>
   <i type="int" name="NBANDSGW">    -1</i>
   <i type="int" name="NBANDSO">    -1</i>
   <i type="int" name="NBANDSV">    -1</i>
   <i type="int" name="NELMGW">     1</i>
   <i type="int" name="NELMHF">     1</i>
   <i type="int" name="DIM">     3</i>
   <i type="int" name="IESPILON">     4</i>
   <i type="int" name="ANTIRES">     0</i>
   <i name="OMEGAMAX">    -30.00000000</i>
   <i name="OMEGAMIN">    -30.00000000</i>
   <i name="OMEGATL">   -200.00000000</i>
   <i type="int" name="OMEGAGRID">     0</i>
   <i name="CSHIFT">     -0.10000000</i>
   <i type="logical" name="LSELFENERGY"> F  </i>
   <i type="logical" name="LSPECTRAL"> F  </i>
   <i type="logical" name="LSPECTRALGW"> F  </i>
   <i type="logical" name="LSINGLES"> F  </i>
   <i type="logical" name="LFERMIGW"> F  </i>
   <i type="logical" name="ODDONLYGW"> F  </i>
   <i type="logical" name="EVENONLYGW"> F  </i>
   <i type="int" name="NKREDLFX">     1</i>
   <i type="int" name="NKREDLFY">     1</i>
   <i type="int" name="NKREDLFZ">     1</i>
   <i type="int" name="MAXMEM">  2800</i>
   <i type="int" name="TELESCOPE">     0</i>
   <i type="int" name="NTAUPAR">    -1</i>
   <i type="int" name="NOMEGAPAR">    -1</i>
   <i name="DAMP_NEWTON">      0.80000001</i>
   <i name="LAMBDA">      1.00000000</i>
  </separator>
  <separator name="External order field" >
   <i name="OFIELD_KAPPA">      0.00000000</i>
   <v name="OFIELD_K">      0.00000000      0.00000000      0.00000000</v>
   <i name="OFIELD_Q6_NEAR">      0.00000000</i>
   <i name="OFIELD_Q6_FAR">      0.00000000</i>
   <i name="OFIELD_A">      0.00000000</i>
  </separator>
  <separator name="optional k-points parameters" >
   <i type="int" name="KPOINTS_OPT_MODE">     1</i>
   <i type="logical" name="LKPOINTS_OPT"> F  </i>
  </separator>
 </parameters>
 <atominfo>
  <atoms>       4 </atoms>
  <types>       1 </types>
  <array name="atoms" >
   <dimension dim="1">ion</dimension>
   <field type="string">element</field>
   <field type="int">atomtype</field>
   <set>
    <rc><c>Al</c><c>   1</c></rc>
    <rc><c>Al</c><c>   1</c></rc>
    <rc><c>Al</c><c>   1</c></rc>
    <rc><c>Al</c><c>   1</c></rc>
   </set>
  </array>
  <array name="atomtypes" >
   <dimension dim="1">type</dimension>
   <field type="int">atomspertype</field>
   <field type="string">element</field>
   <field>mass</field>
   <field>valence</field>
   <field type="string">pseudopotential</field>
   <set>
    <rc><c>   4</c><c>Al</c><c>     26.98200000</c><c>      3.00000000</c><c> PAW_PBE Al 04Jan2001                   </c></rc>
   </set>
  </array>
 </atominfo>
 <structure name="initialpos" >
  <crystal>
   <varray name="basis" >
    <v>       1.42857300      -2.47436200       0.00000000 </v>
    <v>       1.42857300       2.47436200       0.00000000 </v>
    <v>       0.00000000       0.00000000       9.29698500 </v>
   </varray>
   <i name="volume">     65.72609058 </i>
   <varray name="rec_basis" >
    <v>       0.34999962      -0.20207229       0.00000000 </v>
    <v>       0.34999962       0.20207229       0.00000000 </v>
    <v>       0.00000000       0.00000000       0.10756175 </v>
   </varray>
  </crystal>
  <varray name="positions" >
   <v>       0.00000000       0.00000000       0.00000000 </v>
   <v>       0.33333300       0.66666700       0.25000000 </v>
   <v>       0.00000000       0.00000000       0.50000000 </v>
   <v>       0.66666700       0.33333300       0.75000000 </v>
  </varray>
 </structure>
 <calculation>
  <scstep>
   <time name="dav">    1.78    1.79</time>
   <time name="total">    1.91    1.93</time>
   <energy>
    <i name="alphaZ">     -0.81765082 </i>
    <i name="ewald">   -294.46419796 </i>
    <i name="hartreedc">     -0.40337594 </i>
    <i name="XCdc">   -104.71510975 </i>
    <i name="pawpsdc">    142.14058419 </i>
    <i name="pawaedc">    -14.32276398 </i>
    <i name="eentropy">     -0.00267317 </i>
    <i name="bandstr">     50.74690048 </i>
    <i name="atom">    214.15382826 </i>
    <i name="e_fr_energy">     -7.68445871 </i>
    <i name="e_wo_entrp">     -7.68178554 </i>
    <i name="e_0_energy">     -7.68356765 </i>
   </energy>
  </scstep>
  <scstep>
   <time name="dav">    2.06    2.08</time>
   <time name="total">    2.06    2.08</time>
   <energy>
    <i name="e_fr_energy">    -14.64917650 </i>
    <i name="e_wo_entrp">    -14.65149794 </i>
    <i name="e_0_energy">    -14.64995032 </i>
   </energy>
  </scstep>
  <scstep>
   <time name="dav">    1.63    1.64</time>
   <time name="total">    1.63    1.64</time>
   <energy>
    <i name="e_fr_energy">    -14.66921773 </i>
    <i name="e_wo_entrp">    -14.67143752 </i>
    <i name="e_0_energy">    -14.66995766 </i>
   </energy>
  </scstep>
  <scstep>
   <time name="dav">    2.75    2.77</time>
   <time name="total">    2.76    2.77</time>
   <energy>
    <i name="e_fr_energy">    -14.66925655 </i>
    <i name="e_wo_entrp">    -14.67147630 </i>
    <i name="e_0_energy">    -14.66999646 </i>
   </energy>
  </scstep>
  <scstep>
   <time name="dav">    1.53    1.54</time>
   <time name="total">    1.61    1.62</time>
   <energy>
    <i name="e_fr_energy">    -14.66925655 </i>
    <i name="e_wo_entrp">    -14.67147630 </i>
    <i name="e_0_energy">    -14.66999646 </i>
   </energy>
  </scstep>
  <scstep>
   <time name="diag">    0.25    0.26</time>
   <time name="diis">    0.84    0.85</time>
   <time name="orth">    0.02    0.02</time>
   <time name="total">    1.34    1.35</time>
   <energy>
    <i name="e_fr_energy">    -14.82185964 </i>
    <i name="e_wo_entrp">    -14.82162242 </i>
    <i name="e_0_energy">    -14.82178057 </i>
   </energy>
  </scstep>
  <scstep>
   <time name="diag">    0.30    0.30</time>
   <time name="diis">    0.75    0.75</time>
   <time name="orth">    0.02    0.02</time>
   <time name="total">    1.27    1.28</time>
   <energy>
    <i name="e_fr_energy">    -14.93494323 </i>
    <i name="e_wo_entrp">    -14.93571303 </i>
    <i name="e_0_energy">    -14.93519983 </i>
   </energy>
  </scstep>
  <scstep>
   <time name="diag">    0.26    0.26</time>
   <time name="diis">    0.71    0.71</time>
   <time name="orth">    0.01    0.01</time>
   <time name="total">    1.19    1.20</time>
   <energy>
    <i name="e_fr_energy">    -14.93022025 </i>
    <i name="e_wo_entrp">    -14.93089078 </i>
    <i name="e_0_energy">    -14.93044376 </i>
   </energy>
  </scstep>
  <scstep>
   <time name="diag">    0.25    0.25</time>
   <time name="diis">    0.69    0.70</time>
   <time name="orth">    0.01    0.01</time>
   <time name="total">    1.09    1.10</time>
   <energy>
    <i name="alphaZ">     -0.81765082 </i>
    <i name="ewald">   -294.46419796 </i>
    <i name="hartreedc">     -0.40519376 </i>
    <i name="XCdc">   -104.50056761 </i>
    <i name="pawpsdc">    142.71400362 </i>
    <i name="pawaedc">    -14.94243647 </i>
    <i name="eentropy">      0.00064635 </i>
    <i name="bandstr">     43.33146289 </i>
    <i name="atom">    214.15382826 </i>
    <i name="e_fr_energy">    -14.93010552 </i>
    <i name="e_wo_entrp">    -14.93075187 </i>
    <i name="e_0_energy">    -14.93032097 </i>
   </energy>
  </scstep>
  <structure>
   <crystal>
    <varray name="basis" >
     <v>       1.42857300      -2.47436200       0.00000000 </v>
     <v>       1.42857300       2.47436200       0.00000000 </v>
     <v>       0.00000000       0.00000000       9.29698500 </v>
    </varray>
    <i name="volume">     65.72609058 </i>
    <varray name="rec_basis" >
     <v>       0.34999962      -0.20207229       0.00000000 </v>
     <v>       0.34999962       0.20207229       0.00000000 </v>
     <v>       0.00000000       0.00000000       0.10756175 </v>
    </varray>
   </crystal>
   <varray name="positions" >
    <v>       0.00000000       0.00000000       0.00000000 </v>
    <v>       0.33333300       0.66666700       0.25000000 </v>
    <v>       0.00000000       0.00000000       0.50000000 </v>
    <v>       0.66666700       0.33333300       0.75000000 </v>
   </varray>
  </structure>
  <varray name="forces" >
   <v>       0.00000000      -0.00000000      -0.00000000 </v>
   <v>       0.00000000       0.00000000       0.00000000 </v>
   <v>       0.00000000      -0.00000000      -0.00000000 </v>
   <v>      -0.00000000      -0.00000000       0.00000000 </v>
  </varray>
  <varray name="stress" >
   <v>       2.24542757       0.00000000      -0.00000000 </v>
   <v>       0.00000000       2.24542935       0.00000000 </v>
   <v>      -0.00000000      -0.00000000       6.26302159 </v>
  </varray>
  <energy>
   <i name="e_fr_energy">    -14.93010552 </i>
   <i name="e_wo_entrp">    -14.93075187 </i>
   <i name="e_0_energy">    -14.93032097 </i>
  </energy>
  <time name="totalsc">   17.09   17.21</time>
 </calculation>
 <calculation>
  <scstep>
   <time name="dav">    2.66    2.68</time>
   <time name="total">    2.86    2.88</time>
   <energy>
    <i name="alphaZ">     -0.81331685 </i>
    <i name="ewald">   -293.94357383 </i>
    <i name="hartreedc">     -0.40636432 </i>
    <i name="XCdc">   -104.53126338 </i>
    <i name="pawpsdc">    142.72852221 </i>
    <i name="pawaedc">    -14.95870782 </i>
    <i name="eentropy">     -0.00008084 </i>
    <i name="bandstr">     42.84020316 </i>
    <i name="atom">    214.15382826 </i>
    <i name="e_fr_energy">    -14.93075342 </i>
    <i name="e_wo_entrp">    -14.93067258 </i>
    <i name="e_0_energy">    -14.93072647 </i>
   </energy>
  </scstep>
  <scstep>
   <time name="diag">    0.24    0.24</time>
   <time name="diis">    0.70    0.70</time>
   <time name="orth">    0.02    0.02</time>
   <time name="total">    1.09    1.10</time>
   <energy>
    <i name="alphaZ">     -0.81331685 </i>
    <i name="ewald">   -293.94357383 </i>
    <i name="hartreedc">     -0.40603780 </i>
    <i name="XCdc">   -104.53323711 </i>
    <i name="pawpsdc">    142.70218238 </i>
    <i name="pawaedc">    -14.93172163 </i>
    <i name="eentropy">     -0.00006841 </i>
    <i name="bandstr">     42.84121493 </i>
    <i name="atom">    214.15382826 </i>
    <i name="e_fr_energy">    -14.93073007 </i>
    <i name="e_wo_entrp">    -14.93066166 </i>
    <i name="e_0_energy">    -14.93070727 </i>
   </energy>
  </scstep>
  <structure>
   <crystal>
    <varray name="basis" >
     <v>       1.43016008      -2.47711091      -0.00000000 </v>
     <v>       1.43016008       2.47711091       0.00000000 </v>
     <v>      -0.00000000      -0.00000000       9.32579375 </v>
    </varray>
    <i name="volume">     66.07632908 </i>
    <varray name="rec_basis" >
     <v>       0.34961121      -0.20184805       0.00000000 </v>
     <v>       0.34961121       0.20184805       0.00000000 </v>
     <v>       0.00000000      -0.00000000       0.10722948 </v>
    </varray>
   </crystal>
   <varray name="positions" >
    <v>       0.00000000       0.00000000       1.00000000 </v>
    <v>       0.33333300       0.66666700       0.25000000 </v>
    <v>       0.00000000       0.00000000       0.50000000 </v>
    <v>       0.66666700       0.33333300       0.75000000 </v>
   </varray>
  </structure>
  <varray name="forces" >
   <v>      -0.00000000       0.00000000       0.00000000 </v>
   <v>       0.00000000      -0.00000000      -0.00000000 </v>
   <v>      -0.00000000       0.00000000       0.00000000 </v>
   <v>      -0.00000000       0.00000000       0.00000000 </v>
  </varray>
  <varray name="stress" >
   <v>      -1.41964660      -0.00000000      -0.00000000 </v>
   <v>       0.00000000      -1.41964773      -0.00000000 </v>
   <v>       0.00000000       0.00000000       2.47584146 </v>
  </varray>
  <energy>
   <i name="e_fr_energy">    -14.93073007 </i>
   <i name="e_wo_entrp">    -14.93066166 </i>
   <i name="e_0_energy">    -14.93070727 </i>
  </energy>
  <time name="totalsc">    5.87    5.91</time>
 </calculation>
 <calculation>
  <scstep>
   <time name="dav">    2.78    2.80</time>
   <time name="total">    2.98    3.00</time>
   <energy>
    <i name="alphaZ">     -0.81233009 </i>
    <i name="ewald">   -293.82473398 </i>
    <i name="hartreedc">     -0.40544673 </i>
    <i name="XCdc">   -104.54374891 </i>
    <i name="pawpsdc">    142.66693790 </i>
    <i name="pawaedc">    -14.89552405 </i>
    <i name="eentropy">     -0.00021623 </i>
    <i name="bandstr">     42.73050254 </i>
    <i name="atom">    214.15382826 </i>
    <i name="e_fr_energy">    -14.93073129 </i>
    <i name="e_wo_entrp">    -14.93051506 </i>
    <i name="e_0_energy">    -14.93065921 </i>
   </energy>
  </scstep>
  <scstep>
   <time name="diag">    0.24    0.24</time>
   <time name="diis">    0.49    0.49</time>
   <time name="orth">    0.01    0.01</time>
   <time name="total">    0.88    0.88</time>
   <energy>
    <i name="alphaZ">     -0.81233009 </i>
    <i name="ewald">   -293.82473398 </i>
    <i name="hartreedc">     -0.40519714 </i>
    <i name="XCdc">   -104.54476065 </i>
    <i name="pawpsdc">    142.65895541 </i>
    <i name="pawaedc">    -14.88717352 </i>
    <i name="eentropy">     -0.00021321 </i>
    <i name="bandstr">     42.73090150 </i>
    <i name="atom">    214.15382826 </i>
    <i name="e_fr_energy">    -14.93072343 </i>
    <i name="e_wo_entrp">    -14.93051021 </i>
    <i name="e_0_energy">    -14.93065236 </i>
   </energy>
  </scstep>
  <structure>
   <crystal>
    <varray name="basis" >
     <v>       1.43052312      -2.47773971      -0.00000000 </v>
     <v>       1.43052312       2.47773971       0.00000000 </v>
     <v>      -0.00000000      -0.00000000       9.33238359 </v>
    </varray>
    <i name="volume">     66.15659425 </i>
    <varray name="rec_basis" >
     <v>       0.34952249      -0.20179682       0.00000000 </v>
     <v>       0.34952249       0.20179682       0.00000000 </v>
     <v>       0.00000000      -0.00000000       0.10715376 </v>
    </varray>
   </crystal>
   <varray name="positions" >
    <v>       0.00000000       0.00000000       0.00000000 </v>
    <v>       0.33333300       0.66666700       0.25000000 </v>
    <v>       0.00000000       0.00000000       0.50000000 </v>
    <v>       0.66666700       0.33333300       0.75000000 </v>
   </varray>
  </structure>
  <varray name="forces" >
   <v>      -0.00000000      -0.00000000       0.00000000 </v>
   <v>       0.00000000      -0.00000000       0.00000000 </v>
   <v>      -0.00000000      -0.00000000       0.00000000 </v>
   <v>      -0.00000000       0.00000000      -0.00000000 </v>
  </varray>
  <varray name="stress" >
   <v>      -2.32281389      -0.00000000       0.00000000 </v>
   <v>      -0.00000000      -2.32281574       0.00000000 </v>
   <v>       0.00000000      -0.00000000       1.26623616 </v>
  </varray>
  <energy>
   <i name="e_fr_energy">    -14.93072343 </i>
   <i name="e_wo_entrp">    -14.93051021 </i>
   <i name="e_0_energy">    -14.93065236 </i>
  </energy>
  <time name="totalsc">    5.45    5.48</time>
  <eigenvalues>
   <array>
    <dimension dim="1">band</dimension>
    <dimension dim="2">kpoint</dimension>
    <dimension dim="3">spin</dimension>
    <field>eigene</field>
    <field>occ</field>
    <set>
     <set comment="spin 1">
      <set comment="kpoint 1">
       <r>   -3.1439    1.0000 </r>
       <r>   -1.4563    1.0000 </r>
       <r>   -1.4514    1.0000 </r>
       <r>    3.3999    1.0000 </r>
       <r>    3.6126    1.0000 </r>
       <r>   11.4284   -0.0000 </r>
       <r>   11.4418   -0.0000 </r>
       <r>   18.5957    0.0000 </r>
       <r>   18.5957    0.0000 </r>
       <r>   18.7996    0.0000 </r>
       <r>   18.7996    0.0000 </r>
       <r>   19.7922    0.0000 </r>
       <r>   19.7922    0.0000 </r>
       <r>   19.9945    0.0000 </r>
       <r>   19.9945    0.0000 </r>
       <r>   20.2393    0.0000 </r>
       <r>   20.2393    0.0000 </r>
       <r>   20.3183    0.0000 </r>
       <r>   20.5876    0.0000 </r>
       <r>   20.5876    0.0000 </r>
       <r>   22.1446    0.0000 </r>
       <r>   22.3003    0.0000 </r>
       <r>   22.3950    0.0000 </r>
       <r>   23.2561    0.0000 </r>
       <r>   23.8184    0.0000 </r>
       <r>   23.8797    0.0000 </r>
       <r>   23.8797    0.0000 </r>
       <r>   23.9430    0.0000 </r>
       <r>   24.0765    0.0000 </r>
       <r>   24.0765    0.0000 </r>
       <r>   24.5186    0.0000 </r>
       <r>   24.5186    0.0000 </r>
      </set>
      <set comment="kpoint 2">
       <r>   -3.0013    1.0000 </r>
       <r>   -1.3154    1.0000 </r>
       <r>   -1.3104    1.0000 </r>
       <r>    3.5321    1.0000 </r>
       <r>    3.7520    1.0000 </r>
       <r>   11.5413   -0.0000 </r>
       <r>   11.5605   -0.0000 </r>
       <r>   16.2496    0.0000 </r>
       <r>   17.2321    0.0000 </r>
       <r>   17.6179    0.0000 </r>
       <r>   17.7086    0.0000 </r>
       <r>   18.6440    0.0000 </r>
       <r>   18.6719    0.0000 </r>
       <r>   18.7057    0.0000 </r>
       <r>   19.9328    0.0000 </r>
       <r>   20.1779    0.0000 </r>
       <r>   20.4498    0.0000 </r>
       <r>   21.3012    0.0000 </r>
       <r>   21.6921    0.0000 </r>
       <r>   21.9170    0.0000 </r>
       <r>   22.1979    0.0000 </r>
       <r>   22.2496    0.0000 </r>
       <r>   22.6785    0.0000 </r>
       <r>   22.8578    0.0000 </r>
       <r>   23.2203    0.0000 </r>
       <r>   23.6806    0.0000 </r>
       <r>   23.9024    0.0000 </r>
       <r>   24.6187    0.0000 </r>
       <r>   24.6640    0.0000 </r>
       <r>   24.9810    0.0000 </r>
       <r>   25.3970    0.0000 </r>
       <r>   25.5225    0.0000 </r>
      </set>
      <set comment="kpoint 3">
       <r>   -2.5744    1.0000 </r>
       <r>   -0.8936    1.0000 </r>
       <r>   -0.8884    1.0000 </r>
       <r>    3.9284    1.0000 </r>
       <r>    4.1671    1.0000 </r>
       <r>   11.8077   -0.0000 </r>
       <r>   11.8914   -0.0000 </r>
       <r>   13.5145    0.0000 </r>
       <r>   14.8267    0.0000 </r>
       <r>   14.9543    0.0000 </r>
       <r>   16.0101    0.0000 </r>
       <r>   17.4530    0.0000 </r>
       <r>   17.4611    0.0000 </r>
       <r>   17.5104    0.0000 </r>
       <r>   18.7579    0.0000 </r>
       <r>   18.9983    0.0000 </r>
       <r>   19.5970    0.0000 </r>
       <r>   20.1650    0.0000 </r>
       <r>   21.5246    0.0000 </r>
       <r>   21.9675    0.0000 </r>
       <r>   22.3084    0.0000 </r>
       <r>   22.4380    0.0000 </r>
       <r>   22.7279    0.0000 </r>
       <r>   23.8570    0.0000 </r>
       <r>   23.9745    0.0000 </r>
       <r>   24.0976    0.0000 </r>
       <r>   24.2605    0.0000 </r>
       <r>   25.5684    0.0000 </r>
       <r>   26.1570    0.0000 </r>
       <r>   26.4610    0.0000 </r>
       <r>   27.2727    0.0000 </r>
       <r>   27.4440    0.0000 </r>
      </set>
      <set comment="kpoint 4">
       <r>   -1.8657    1.0000 </r>
       <r>   -0.1936    1.0000 </r>
       <r>   -0.1879    1.0000 </r>
       <r>    4.5880    1.0000 </r>
       <r>    4.8464    1.0000 </r>
       <r>   10.5125   -0.0000 </r>
       <r>   11.7980   -0.0000 </r>
       <r>   12.1357    0.0000 </r>
       <r>   12.7197    0.0000 </r>
       <r>   12.9812    0.0000 </r>
       <r>   15.0334    0.0000 </r>
       <r>   16.0348    0.0000 </r>
       <r>   16.4844    0.0000 </r>
       <r>   16.4885    0.0000 </r>
       <r>   16.5281    0.0000 </r>
       <r>   17.5570    0.0000 </r>
       <r>   18.2886    0.0000 </r>
       <r>   18.7135    0.0000 </r>
       <r>   20.6745    0.0000 </r>
       <r>   21.0378    0.0000 </r>
       <r>   22.2126    0.0000 </r>
       <r>   22.4761    0.0000 </r>
       <r>   23.9631    0.0000 </r>
       <r>   24.3992    0.0000 </r>
       <r>   24.6224    0.0000 </r>
       <r>   24.6344    0.0000 </r>
       <r>   25.1796    0.0000 </r>
       <r>   25.9349    0.0000 </r>
       <r>   26.1437    0.0000 </r>
       <r>   27.2681    0.0000 </r>
       <r>   27.7805    0.0000 </r>
       <r>   28.2159    0.0000 </r>
      </set>
      <set comment="kpoint 5">
       <r>   -0.8795    1.0000 </r>
       <r>    0.7797    1.0000 </r>
       <r>    0.7865    1.0000 </r>
       <r>    5.5061    1.0000 </r>
       <r>    5.7376    1.0000 </r>
       <r>    8.1238   -0.0062 </r>
       <r>    9.6036   -0.0000 </r>
       <r>    9.6766   -0.0000 </r>
       <r>   13.4339    0.0000 </r>
       <r>   13.5110    0.0000 </r>
       <r>   14.1489    0.0000 </r>
       <r>   14.1686    0.0000 </r>
       <r>   14.3024    0.0000 </r>
       <r>   15.7556    0.0000 </r>
       <r>   15.7583    0.0000 </r>
       <r>   16.4852    0.0000 </r>
       <r>   17.5315    0.0000 </r>
       <r>   17.8132    0.0000 </r>
       <r>   20.0286    0.0000 </r>
       <r>   20.2558    0.0000 </r>
       <r>   21.4411    0.0000 </r>
       <r>   21.5316    0.0000 </r>
       <r>   22.9666    0.0000 </r>
       <r>   23.3045    0.0000 </r>
       <r>   24.6746    0.0000 </r>
       <r>   25.2624    0.0000 </r>
       <r>   26.8887    0.0000 </r>
       <r>   27.2843    0.0000 </r>
       <r>   27.3025    0.0000 </r>
       <r>   28.4799    0.0000 </r>
       <r>   28.7417    0.0000 </r>
       <r>   28.7603    0.0000 </r>
      </set>
      <set comment="kpoint 6">
       <r>    0.3780    1.0000 </r>
       <r>    2.0176    1.0000 </r>
       <r>    2.0276    1.0000 </r>
       <r>    5.5932    1.0000 </r>
       <r>    6.5967    1.0000 </r>
       <r>    6.9611    1.0000 </r>
       <r>    7.4778    1.0021 </r>
       <r>    7.6795    1.0334 </r>
       <r>   11.9124   -0.0000 </r>
       <r>   12.1618    0.0000 </r>
       <r>   13.8159    0.0000 </r>
       <r>   14.2416    0.0000 </r>
       <r>   14.5318    0.0000 </r>
       <r>   15.2693    0.0000 </r>
       <r>   15.2714    0.0000 </r>
       <r>   16.0809    0.0000 </r>
       <r>   17.0261    0.0000 </r>
       <r>   17.2121    0.0000 </r>
       <r>   19.5991    0.0000 </r>
       <r>   19.7208    0.0000 </r>
       <r>   19.9446    0.0000 </r>
       <r>   20.1770    0.0000 </r>
       <r>   22.1768    0.0000 </r>
       <r>   22.3441    0.0000 </r>
       <r>   25.5969    0.0000 </r>
       <r>   26.4322    0.0000 </r>
       <r>   26.8497    0.0000 </r>
       <r>   26.8842    0.0000 </r>
       <r>   29.3246    0.0000 </r>
       <r>   29.4120    0.0000 </r>
       <r>   29.6363    0.0000 </r>
       <r>   30.4923    0.0000 </r>
      </set>
      <set comment="kpoint 7">
       <r>    1.8977    1.0000 </r>
       <r>    3.4843    1.0000 </r>
       <r>    3.5122    1.0000 </r>
       <r>    3.6697    1.0000 </r>
       <r>    5.3296    1.0000 </r>
       <r>    5.3620    1.0000 </r>
       <r>    8.1953   -0.0355 </r>
       <r>    8.6384   -0.0000 </r>
       <r>    9.9616   -0.0000 </r>
       <r>   10.3135   -0.0000 </r>
       <r>   13.5729    0.0000 </r>
       <r>   14.6312    0.0000 </r>
       <r>   15.0261    0.0000 </r>
       <r>   15.0280    0.0000 </r>
       <r>   15.4687    0.0000 </r>
       <r>   16.4398    0.0000 </r>
       <r>   16.8402    0.0000 </r>
       <r>   16.8497    0.0000 </r>
       <r>   18.4455    0.0000 </r>
       <r>   19.0022    0.0000 </r>
       <r>   19.3848    0.0000 </r>
       <r>   19.4507    0.0000 </r>
       <r>   21.8873    0.0000 </r>
       <r>   21.9605    0.0000 </r>
       <r>   26.6568    0.0000 </r>
       <r>   26.6721    0.0000 </r>
       <r>   26.7499    0.0000 </r>
       <r>   27.7360    0.0000 </r>
       <r>   28.2580    0.0000 </r>
       <r>   29.1887    0.0000 </r>
       <r>   29.9981    0.0000 </r>
       <r>   30.1635    0.0000 </r>
      </set>
      <set comment="kpoint 8">
       <r>   -2.7165    1.0000 </r>
       <r>   -1.0341    1.0000 </r>
       <r>   -1.0290    1.0000 </r>
       <r>    3.7963    1.0000 </r>
       <r>    4.0293    1.0000 </r>
       <r>   11.7466   -0.0000 </r>
       <r>   11.7888   -0.0000 </r>
       <r>   14.8378    0.0000 </r>
       <r>   15.0058    0.0000 </r>
       <r>   16.0644    0.0000 </r>
       <r>   16.1420    0.0000 </r>
       <r>   16.5990    0.0000 </r>
       <r>   16.6925    0.0000 </r>
       <r>   19.8626    0.0000 </r>
       <r>   19.8696    0.0000 </r>
       <r>   20.4118    0.0000 </r>
       <r>   20.5212    0.0000 </r>
       <r>   20.7884    0.0000 </r>
       <r>   20.8718    0.0000 </r>
       <r>   21.1432    0.0000 </r>
       <r>   21.7087    0.0000 </r>
       <r>   21.7559    0.0000 </r>
       <r>   22.3435    0.0000 </r>
       <r>   22.8688    0.0000 </r>
       <r>   22.9984    0.0000 </r>
       <r>   25.2944    0.0000 </r>
       <r>   25.3620    0.0000 </r>
       <r>   25.6798    0.0000 </r>
       <r>   25.8533    0.0000 </r>
       <r>   26.0656    0.0000 </r>
       <r>   26.4310    0.0000 </r>
       <r>   27.0763    0.0000 </r>
      </set>
      <set comment="kpoint 9">
       <r>   -2.1487    1.0000 </r>
       <r>   -0.4732    1.0000 </r>
       <r>   -0.4677    1.0000 </r>
       <r>    4.3244    1.0000 </r>
       <r>    4.5773    1.0000 </r>
       <r>   11.6640   -0.0000 </r>
       <r>   12.1456    0.0000 </r>
       <r>   12.6437    0.0000 </r>
       <r>   13.5081    0.0000 </r>
       <r>   13.7133    0.0000 </r>
       <r>   13.8815    0.0000 </r>
       <r>   15.2794    0.0000 </r>
       <r>   15.4048    0.0000 </r>
       <r>   18.0491    0.0000 </r>
       <r>   18.0909    0.0000 </r>
       <r>   19.2682    0.0000 </r>
       <r>   19.6863    0.0000 </r>
       <r>   19.8550    0.0000 </r>
       <r>   20.3175    0.0000 </r>
       <r>   20.8124    0.0000 </r>
       <r>   22.1253    0.0000 </r>
       <r>   22.7833    0.0000 </r>
       <r>   23.2177    0.0000 </r>
       <r>   23.7511    0.0000 </r>
       <r>   23.9361    0.0000 </r>
       <r>   24.9526    0.0000 </r>
       <r>   25.2303    0.0000 </r>
       <r>   25.9629    0.0000 </r>
       <r>   26.4376    0.0000 </r>
       <r>   27.0814    0.0000 </r>
       <r>   27.1054    0.0000 </r>
       <r>   27.7199    0.0000 </r>
      </set>
      <set comment="kpoint 10">
       <r>   -1.3013    1.0000 </r>
       <r>    0.3636    1.0000 </r>
       <r>    0.3698    1.0000 </r>
       <r>    5.1143    1.0000 </r>
       <r>    5.3735    1.0000 </r>
       <r>    9.3912   -0.0000 </r>
       <r>   10.8555   -0.0000 </r>
       <r>   10.9626   -0.0000 </r>
       <r>   12.5112    0.0000 </r>
       <r>   13.0777    0.0000 </r>
       <r>   13.4832    0.0000 </r>
       <r>   14.3401    0.0000 </r>
       <r>   14.5162    0.0000 </r>
       <r>   15.6661    0.0000 </r>
       <r>   15.8813    0.0000 </r>
       <r>   18.3444    0.0000 </r>
       <r>   18.9375    0.0000 </r>
       <r>   18.9426    0.0000 </r>
       <r>   19.6082    0.0000 </r>
       <r>   19.8801    0.0000 </r>
       <r>   22.8184    0.0000 </r>
       <r>   23.0198    0.0000 </r>
       <r>   23.9784    0.0000 </r>
       <r>   24.0719    0.0000 </r>
       <r>   24.2026    0.0000 </r>
       <r>   25.1988    0.0000 </r>
       <r>   25.2979    0.0000 </r>
       <r>   25.8119    0.0000 </r>
       <r>   26.2866    0.0000 </r>
       <r>   26.7389    0.0000 </r>
       <r>   27.0178    0.0000 </r>
       <r>   29.4442    0.0000 </r>
      </set>
      <set comment="kpoint 11">
       <r>   -0.1794    1.0000 </r>
       <r>    1.4698    1.0000 </r>
       <r>    1.4779    1.0000 </r>
       <r>    6.1511    1.0000 </r>
       <r>    6.1917    1.0000 </r>
       <r>    7.2471    1.0000 </r>
       <r>    8.5786   -0.0000 </r>
       <r>    8.6436   -0.0000 </r>
       <r>   11.9654    0.0000 </r>
       <r>   12.9967    0.0000 </r>
       <r>   13.2971    0.0000 </r>
       <r>   13.4249    0.0000 </r>
       <r>   13.8670    0.0000 </r>
       <r>   14.5757    0.0000 </r>
       <r>   14.7676    0.0000 </r>
       <r>   17.6746    0.0000 </r>
       <r>   18.2552    0.0000 </r>
       <r>   18.3697    0.0000 </r>
       <r>   19.0396    0.0000 </r>
       <r>   19.1375    0.0000 </r>
       <r>   21.2283    0.0000 </r>
       <r>   21.4043    0.0000 </r>
       <r>   23.5154    0.0000 </r>
       <r>   23.9832    0.0000 </r>
       <r>   25.3062    0.0000 </r>
       <r>   25.6487    0.0000 </r>
       <r>   25.9251    0.0000 </r>
       <r>   25.9634    0.0000 </r>
       <r>   27.2513    0.0000 </r>
       <r>   28.4703    0.0000 </r>
       <r>   28.8304    0.0000 </r>
       <r>   30.6129    0.0000 </r>
      </set>
      <set comment="kpoint 12">
       <r>    1.2097    1.0000 </r>
       <r>    2.8309    1.0000 </r>
       <r>    2.8456    1.0000 </r>
       <r>    4.7312    1.0000 </r>
       <r>    6.3408    1.0000 </r>
       <r>    6.3703    1.0000 </r>
       <r>    7.5927    1.0151 </r>
       <r>    8.0319    0.1817 </r>
       <r>   10.9843   -0.0000 </r>
       <r>   11.0416   -0.0000 </r>
       <r>   12.1111    0.0000 </r>
       <r>   13.2381    0.0000 </r>
       <r>   13.4477    0.0000 </r>
       <r>   15.4700    0.0000 </r>
       <r>   15.6397    0.0000 </r>
       <r>   17.2176    0.0000 </r>
       <r>   17.7306    0.0000 </r>
       <r>   17.9796    0.0000 </r>
       <r>   18.4688    0.0000 </r>
       <r>   18.6851    0.0000 </r>
       <r>   19.6126    0.0000 </r>
       <r>   20.0366    0.0000 </r>
       <r>   23.2726    0.0000 </r>
       <r>   23.6688    0.0000 </r>
       <r>   25.5065    0.0000 </r>
       <r>   25.5652    0.0000 </r>
       <r>   26.3814    0.0000 </r>
       <r>   27.1200    0.0000 </r>
       <r>   29.1252    0.0000 </r>
       <r>   29.1819    0.0000 </r>
       <r>   30.5115    0.0000 </r>
       <r>   30.8869    0.0000 </r>
      </set>
      <set comment="kpoint 13">
       <r>    2.8031    1.0000 </r>
       <r>    2.9104    1.0000 </r>
       <r>    4.1560    1.0000 </r>
       <r>    4.2462    1.0000 </r>
       <r>    4.7413    1.0000 </r>
       <r>    4.8355    1.0000 </r>
       <r>    8.9097   -0.0000 </r>
       <r>    9.3614   -0.0000 </r>
       <r>    9.3639   -0.0000 </r>
       <r>    9.5976   -0.0000 </r>
       <r>   11.8370   -0.0000 </r>
       <r>   13.1406    0.0000 </r>
       <r>   13.3062    0.0000 </r>
       <r>   16.2991    0.0000 </r>
       <r>   16.6829    0.0000 </r>
       <r>   16.8684    0.0000 </r>
       <r>   17.0163    0.0000 </r>
       <r>   17.7686    0.0000 </r>
       <r>   18.0920    0.0000 </r>
       <r>   18.5667    0.0000 </r>
       <r>   18.8617    0.0000 </r>
       <r>   19.5647    0.0000 </r>
       <r>   23.1851    0.0000 </r>
       <r>   23.5465    0.0000 </r>
       <r>   25.4206    0.0000 </r>
       <r>   25.4619    0.0000 </r>
       <r>   27.3924    0.0000 </r>
       <r>   27.9743    0.0000 </r>
       <r>   28.1515    0.0000 </r>
       <r>   29.0107    0.0000 </r>
       <r>   30.9601    0.0000 </r>
       <r>   31.1576    0.0000 </r>
      </set>
      <set comment="kpoint 14">
       <r>   -1.4422    1.0000 </r>
       <r>    0.2246    1.0000 </r>
       <r>    0.2306    1.0000 </r>
       <r>    4.9832    1.0000 </r>
       <r>    5.2463    1.0000 </r>
       <r>   10.7813   -0.0000 </r>
       <r>   11.0286   -0.0000 </r>
       <r>   12.1630    0.0000 </r>
       <r>   12.1630    0.0000 </r>
       <r>   12.2402    0.0000 </r>
       <r>   12.9643    0.0000 </r>
       <r>   13.2891    0.0000 </r>
       <r>   13.8343    0.0000 </r>
       <r>   16.8238    0.0000 </r>
       <r>   17.2402    0.0000 </r>
       <r>   17.4772    0.0000 </r>
       <r>   17.5547    0.0000 </r>
       <r>   21.0828    0.0000 </r>
       <r>   21.2002    0.0000 </r>
       <r>   22.2331    0.0000 </r>
       <r>   22.5727    0.0000 </r>
       <r>   22.6405    0.0000 </r>
       <r>   22.9622    0.0000 </r>
       <r>   23.7149    0.0000 </r>
       <r>   24.4544    0.0000 </r>
       <r>   24.4971    0.0000 </r>
       <r>   24.5466    0.0000 </r>
       <r>   25.4161    0.0000 </r>
       <r>   25.7368    0.0000 </r>
       <r>   27.0562    0.0000 </r>
       <r>   27.9399    0.0000 </r>
       <r>   28.1917    0.0000 </r>
      </set>
      <set comment="kpoint 15">
       <r>   -0.4590    1.0000 </r>
       <r>    1.1946    1.0000 </r>
       <r>    1.2019    1.0000 </r>
       <r>    5.8990    1.0000 </r>
       <r>    6.1183    1.0000 </r>
       <r>    8.5109   -0.0003 </r>
       <r>    9.9679   -0.0000 </r>
       <r>    9.9717   -0.0000 </r>
       <r>   10.2045   -0.0000 </r>
       <r>   11.6586   -0.0000 </r>
       <r>   11.8894   -0.0000 </r>
       <r>   13.9240    0.0000 </r>
       <r>   14.0664    0.0000 </r>
       <r>   14.7977    0.0000 </r>
       <r>   15.2258    0.0000 </r>
       <r>   16.5234    0.0000 </r>
       <r>   16.7066    0.0000 </r>
       <r>   20.4164    0.0000 </r>
       <r>   21.7137    0.0000 </r>
       <r>   21.7729    0.0000 </r>
       <r>   22.4267    0.0000 </r>
       <r>   22.7933    0.0000 </r>
       <r>   23.4901    0.0000 </r>
       <r>   24.0662    0.0000 </r>
       <r>   24.4929    0.0000 </r>
       <r>   24.6601    0.0000 </r>
       <r>   24.8847    0.0000 </r>
       <r>   25.4874    0.0000 </r>
       <r>   25.7522    0.0000 </r>
       <r>   27.4806    0.0000 </r>
       <r>   27.5000    0.0000 </r>
       <r>   29.6284    0.0000 </r>
      </set>
      <set comment="kpoint 16">
       <r>    0.7948    1.0000 </r>
       <r>    2.4277    1.0000 </r>
       <r>    2.4386    1.0000 </r>
       <r>    5.9883    1.0000 </r>
       <r>    6.9795    1.0000 </r>
       <r>    7.3307    1.0001 </r>
       <r>    7.8736    0.7969 </r>
       <r>    8.0018    0.2869 </r>
       <r>    9.6689   -0.0000 </r>
       <r>   11.1480   -0.0000 </r>
       <r>   11.3078   -0.0000 </r>
       <r>   12.4025    0.0000 </r>
       <r>   12.9038    0.0000 </r>
       <r>   15.1601    0.0000 </r>
       <r>   15.2233    0.0000 </r>
       <r>   16.1408    0.0000 </r>
       <r>   16.3058    0.0000 </r>
       <r>   19.5720    0.0000 </r>
       <r>   20.1411    0.0000 </r>
       <r>   21.0357    0.0000 </r>
       <r>   21.4009    0.0000 </r>
       <r>   21.9809    0.0000 </r>
       <r>   23.7955    0.0000 </r>
       <r>   23.8203    0.0000 </r>
       <r>   25.2735    0.0000 </r>
       <r>   25.4362    0.0000 </r>
       <r>   26.1148    0.0000 </r>
       <r>   27.0163    0.0000 </r>
       <r>   27.0224    0.0000 </r>
       <r>   28.0967    0.0000 </r>
       <r>   28.7809    0.0000 </r>
       <r>   30.4557    0.0000 </r>
      </set>
      <set comment="kpoint 17">
       <r>    2.3099    1.0000 </r>
       <r>    3.8860    1.0000 </r>
       <r>    3.9160    1.0000 </r>
       <r>    4.0753    1.0000 </r>
       <r>    5.7289    1.0000 </r>
       <r>    5.7633    1.0000 </r>
       <r>    8.5783   -0.0000 </r>
       <r>    8.6821   -0.0000 </r>
       <r>    9.4663   -0.0000 </r>
       <r>   10.2391   -0.0000 </r>
       <r>   10.8517   -0.0000 </r>
       <r>   11.1354   -0.0000 </r>
       <r>   11.4488   -0.0000 </r>
       <r>   15.4048    0.0000 </r>
       <r>   15.7486    0.0000 </r>
       <r>   16.7504    0.0000 </r>
       <r>   16.9215    0.0000 </r>
       <r>   18.3207    0.0000 </r>
       <r>   18.4485    0.0000 </r>
       <r>   20.3745    0.0000 </r>
       <r>   21.1906    0.0000 </r>
       <r>   21.6678    0.0000 </r>
       <r>   23.5964    0.0000 </r>
       <r>   23.6069    0.0000 </r>
       <r>   25.3234    0.0000 </r>
       <r>   25.8730    0.0000 </r>
       <r>   27.4290    0.0000 </r>
       <r>   27.7570    0.0000 </r>
       <r>   28.8050    0.0000 </r>
       <r>   28.9809    0.0000 </r>
       <r>   30.4636    0.0000 </r>
       <r>   30.4654    0.0000 </r>
      </set>
      <set comment="kpoint 18">
       <r>    0.6562    1.0000 </r>
       <r>    2.2922    1.0000 </r>
       <r>    2.3023    1.0000 </r>
       <r>    6.8244    1.0000 </r>
       <r>    6.9176    1.0000 </r>
       <r>    7.7382    1.0300 </r>
       <r>    8.2126   -0.0343 </r>
       <r>    9.0174   -0.0000 </r>
       <r>    9.1166   -0.0000 </r>
       <r>    9.6525   -0.0000 </r>
       <r>    9.9638   -0.0000 </r>
       <r>   13.7000    0.0000 </r>
       <r>   13.9306    0.0000 </r>
       <r>   14.0575    0.0000 </r>
       <r>   14.6674    0.0000 </r>
       <r>   15.4726    0.0000 </r>
       <r>   15.5469    0.0000 </r>
       <r>   21.1663    0.0000 </r>
       <r>   21.4650    0.0000 </r>
       <r>   22.2138    0.0000 </r>
       <r>   22.2779    0.0000 </r>
       <r>   23.2074    0.0000 </r>
       <r>   23.2905    0.0000 </r>
       <r>   24.3230    0.0000 </r>
       <r>   24.5010    0.0000 </r>
       <r>   24.6920    0.0000 </r>
       <r>   25.5773    0.0000 </r>
       <r>   25.6672    0.0000 </r>
       <r>   26.4358    0.0000 </r>
       <r>   28.5936    0.0000 </r>
       <r>   29.5539    0.0000 </r>
       <r>   29.7650    0.0000 </r>
      </set>
      <set comment="kpoint 19">
       <r>    2.0368    1.0000 </r>
       <r>    3.6396    1.0000 </r>
       <r>    3.6583    1.0000 </r>
       <r>    5.5313    1.0000 </r>
       <r>    7.0863    1.0000 </r>
       <r>    7.1194    1.0000 </r>
       <r>    7.2213    1.0000 </r>
       <r>    8.3413   -0.0091 </r>
       <r>    8.5654   -0.0001 </r>
       <r>    9.0826   -0.0000 </r>
       <r>    9.5911   -0.0000 </r>
       <r>   11.8386   -0.0000 </r>
       <r>   12.3663    0.0000 </r>
       <r>   13.5811    0.0000 </r>
       <r>   14.0516    0.0000 </r>
       <r>   16.5223    0.0000 </r>
       <r>   16.6311    0.0000 </r>
       <r>   19.7651    0.0000 </r>
       <r>   19.8280    0.0000 </r>
       <r>   21.6667    0.0000 </r>
       <r>   21.7550    0.0000 </r>
       <r>   22.9738    0.0000 </r>
       <r>   24.0400    0.0000 </r>
       <r>   24.5106    0.0000 </r>
       <r>   25.9452    0.0000 </r>
       <r>   26.5843    0.0000 </r>
       <r>   26.7412    0.0000 </r>
       <r>   27.3675    0.0000 </r>
       <r>   27.7080    0.0000 </r>
       <r>   28.8902    0.0000 </r>
       <r>   29.1630    0.0000 </r>
       <r>   30.5323    0.0000 </r>
      </set>
      <set comment="kpoint 20">
       <r>    3.6213    1.0000 </r>
       <r>    3.7243    1.0000 </r>
       <r>    4.9280    1.0000 </r>
       <r>    5.0344    1.0000 </r>
       <r>    5.5443    1.0000 </r>
       <r>    5.6556    1.0000 </r>
       <r>    7.1071    1.0000 </r>
       <r>    8.6951   -0.0000 </r>
       <r>    8.7838   -0.0000 </r>
       <r>    9.6800   -0.0000 </r>
       <r>   10.3425   -0.0000 </r>
       <r>   10.5223   -0.0000 </r>
       <r>   10.8502   -0.0000 </r>
       <r>   13.4470    0.0000 </r>
       <r>   13.9207    0.0000 </r>
       <r>   17.5312    0.0000 </r>
       <r>   17.8618    0.0000 </r>
       <r>   18.3795    0.0000 </r>
       <r>   18.5837    0.0000 </r>
       <r>   21.5310    0.0000 </r>
       <r>   21.5996    0.0000 </r>
       <r>   22.8529    0.0000 </r>
       <r>   24.0078    0.0000 </r>
       <r>   24.4378    0.0000 </r>
       <r>   27.3363    0.0000 </r>
       <r>   27.4694    0.0000 </r>
       <r>   27.8887    0.0000 </r>
       <r>   28.1110    0.0000 </r>
       <r>   28.5387    0.0000 </r>
       <r>   29.2226    0.0000 </r>
       <r>   29.4808    0.0000 </r>
       <r>   29.5928    0.0000 </r>
      </set>
      <set comment="kpoint 21">
       <r>    3.5362    1.0000 </r>
       <r>    5.0412    1.0000 </r>
       <r>    5.1021    1.0000 </r>
       <r>    5.2269    1.0000 </r>
       <r>    5.3423    1.0000 </r>
       <r>    6.5929    1.0000 </r>
       <r>    6.7350    1.0000 </r>
       <r>    7.2307    1.0000 </r>
       <r>    7.3452    1.0001 </r>
       <r>    9.7752   -0.0000 </r>
       <r>   10.4669   -0.0000 </r>
       <r>   11.4058   -0.0000 </r>
       <r>   11.8541   -0.0000 </r>
       <r>   11.8821   -0.0000 </r>
       <r>   12.4579    0.0000 </r>
       <r>   17.6776    0.0000 </r>
       <r>   17.9343    0.0000 </r>
       <r>   19.2971    0.0000 </r>
       <r>   19.4822    0.0000 </r>
       <r>   20.2285    0.0000 </r>
       <r>   20.2561    0.0000 </r>
       <r>   25.5039    0.0000 </r>
       <r>   25.6371    0.0000 </r>
       <r>   26.6788    0.0000 </r>
       <r>   26.8111    0.0000 </r>
       <r>   26.9581    0.0000 </r>
       <r>   27.7508    0.0000 </r>
       <r>   27.8393    0.0000 </r>
       <r>   27.9604    0.0000 </r>
       <r>   29.1277    0.0000 </r>
       <r>   29.1351    0.0000 </r>
       <r>   29.3422    0.0000 </r>
      </set>
      <set comment="kpoint 22">
       <r>   -3.0377    1.0000 </r>
       <r>   -2.1908    1.0000 </r>
       <r>   -0.5119    1.0000 </r>
       <r>    1.9700    1.0000 </r>
       <r>    5.2292    1.0000 </r>
       <r>    9.2002   -0.0000 </r>
       <r>   13.8135    0.0000 </r>
       <r>   18.6794    0.0000 </r>
       <r>   18.6794    0.0000 </r>
       <r>   18.7478    0.0000 </r>
       <r>   18.8821    0.0000 </r>
       <r>   18.8821    0.0000 </r>
       <r>   19.3822    0.0000 </r>
       <r>   19.3822    0.0000 </r>
       <r>   19.6044    0.0000 </r>
       <r>   19.6045    0.0000 </r>
       <r>   20.8162    0.0000 </r>
       <r>   20.8162    0.0000 </r>
       <r>   21.1258    0.0000 </r>
       <r>   21.1258    0.0000 </r>
       <r>   22.2316    0.0000 </r>
       <r>   22.3541    0.0000 </r>
       <r>   22.6766    0.0000 </r>
       <r>   22.9479    0.0000 </r>
       <r>   23.0247    0.0000 </r>
       <r>   23.0247    0.0000 </r>
       <r>   23.2437    0.0000 </r>
       <r>   23.2437    0.0000 </r>
       <r>   24.3536    0.0000 </r>
       <r>   24.7349    0.0000 </r>
       <r>   25.7120    0.0000 </r>
       <r>   25.7130    0.0000 </r>
      </set>
      <set comment="kpoint 23">
       <r>   -2.8952    1.0000 </r>
       <r>   -2.0491    1.0000 </r>
       <r>   -0.3719    1.0000 </r>
       <r>    2.1073    1.0000 </r>
       <r>    5.3630    1.0000 </r>
       <r>    9.3254   -0.0000 </r>
       <r>   13.9041    0.0000 </r>
       <r>   16.3421    0.0000 </r>
       <r>   17.0366    0.0000 </r>
       <r>   17.3216    0.0000 </r>
       <r>   18.0364    0.0000 </r>
       <r>   18.3882    0.0000 </r>
       <r>   18.5741    0.0000 </r>
       <r>   19.0894    0.0000 </r>
       <r>   19.4436    0.0000 </r>
       <r>   19.9351    0.0000 </r>
       <r>   20.5246    0.0000 </r>
       <r>   20.5749    0.0000 </r>
       <r>   21.2031    0.0000 </r>
       <r>   21.6247    0.0000 </r>
       <r>   21.6402    0.0000 </r>
       <r>   22.7816    0.0000 </r>
       <r>   22.9554    0.0000 </r>
       <r>   23.2323    0.0000 </r>
       <r>   23.7195    0.0000 </r>
       <r>   24.0938    0.0000 </r>
       <r>   24.2514    0.0000 </r>
       <r>   24.4266    0.0000 </r>
       <r>   24.4328    0.0000 </r>
       <r>   25.0746    0.0000 </r>
       <r>   25.3686    0.0000 </r>
       <r>   25.9638    0.0000 </r>
      </set>
      <set comment="kpoint 24">
       <r>   -2.4686    1.0000 </r>
       <r>   -1.6250    1.0000 </r>
       <r>    0.0471    1.0000 </r>
       <r>    2.5180    1.0000 </r>
       <r>    5.7616    1.0000 </r>
       <r>    9.6896   -0.0000 </r>
       <r>   13.3535    0.0000 </r>
       <r>   14.0838    0.0000 </r>
       <r>   14.5312    0.0000 </r>
       <r>   15.7098    0.0000 </r>
       <r>   16.1005    0.0000 </r>
       <r>   16.8240    0.0000 </r>
       <r>   17.3810    0.0000 </r>
       <r>   18.1197    0.0000 </r>
       <r>   18.2702    0.0000 </r>
       <r>   18.6262    0.0000 </r>
       <r>   19.3917    0.0000 </r>
       <r>   20.4160    0.0000 </r>
       <r>   20.7832    0.0000 </r>
       <r>   21.3301    0.0000 </r>
       <r>   22.5187    0.0000 </r>
       <r>   22.6651    0.0000 </r>
       <r>   22.9398    0.0000 </r>
       <r>   23.6471    0.0000 </r>
       <r>   24.3771    0.0000 </r>
       <r>   24.7457    0.0000 </r>
       <r>   24.7504    0.0000 </r>
       <r>   25.4805    0.0000 </r>
       <r>   26.1047    0.0000 </r>
       <r>   26.4932    0.0000 </r>
       <r>   26.6983    0.0000 </r>
       <r>   27.0434    0.0000 </r>
      </set>
      <set comment="kpoint 25">
       <r>   -1.7604    1.0000 </r>
       <r>   -0.9211    1.0000 </r>
       <r>    0.7425    1.0000 </r>
       <r>    3.1983    1.0000 </r>
       <r>    6.4128    1.0000 </r>
       <r>   10.0889   -0.0000 </r>
       <r>   10.8966   -0.0000 </r>
       <r>   11.5894   -0.0000 </r>
       <r>   12.9884    0.0000 </r>
       <r>   14.8825    0.0000 </r>
       <r>   15.1241    0.0000 </r>
       <r>   15.2032    0.0000 </r>
       <r>   15.8502    0.0000 </r>
       <r>   16.8119    0.0000 </r>
       <r>   17.3051    0.0000 </r>
       <r>   17.5710    0.0000 </r>
       <r>   18.5365    0.0000 </r>
       <r>   19.2427    0.0000 </r>
       <r>   19.4837    0.0000 </r>
       <r>   20.8445    0.0000 </r>
       <r>   21.7962    0.0000 </r>
       <r>   22.3940    0.0000 </r>
       <r>   22.5279    0.0000 </r>
       <r>   24.6834    0.0000 </r>
       <r>   25.0445    0.0000 </r>
       <r>   25.4179    0.0000 </r>
       <r>   26.0137    0.0000 </r>
       <r>   26.1107    0.0000 </r>
       <r>   26.6631    0.0000 </r>
       <r>   26.9460    0.0000 </r>
       <r>   27.0854    0.0000 </r>
       <r>   28.2897    0.0000 </r>
      </set>
      <set comment="kpoint 26">
       <r>   -0.7750    1.0000 </r>
       <r>    0.0583    1.0000 </r>
       <r>    1.7089    1.0000 </r>
       <r>    4.1377    1.0000 </r>
       <r>    7.1963    1.0000 </r>
       <r>    8.2530   -0.0269 </r>
       <r>    9.0013   -0.0000 </r>
       <r>   10.4752   -0.0000 </r>
       <r>   11.4430   -0.0000 </r>
       <r>   12.8048    0.0000 </r>
       <r>   14.3931    0.0000 </r>
       <r>   15.1199    0.0000 </r>
       <r>   15.2255    0.0000 </r>
       <r>   15.5714    0.0000 </r>
       <r>   16.5773    0.0000 </r>
       <r>   16.8492    0.0000 </r>
       <r>   17.2064    0.0000 </r>
       <r>   18.3674    0.0000 </r>
       <r>   18.7674    0.0000 </r>
       <r>   20.1932    0.0000 </r>
       <r>   20.8635    0.0000 </r>
       <r>   21.6948    0.0000 </r>
       <r>   21.8978    0.0000 </r>
       <r>   24.4217    0.0000 </r>
       <r>   24.7845    0.0000 </r>
       <r>   25.2621    0.0000 </r>
       <r>   27.1736    0.0000 </r>
       <r>   27.2901    0.0000 </r>
       <r>   27.8592    0.0000 </r>
       <r>   27.9347    0.0000 </r>
       <r>   28.9292    0.0000 </r>
       <r>   29.2926    0.0000 </r>
      </set>
      <set comment="kpoint 27">
       <r>    0.4815    1.0000 </r>
       <r>    1.3063    1.0000 </r>
       <r>    2.9346    1.0000 </r>
       <r>    5.2090    1.0000 </r>
       <r>    5.9541    1.0000 </r>
       <r>    6.6168    1.0000 </r>
       <r>    8.2855   -0.0194 </r>
       <r>    8.7025   -0.0000 </r>
       <r>   10.6336   -0.0000 </r>
       <r>   12.4572    0.0000 </r>
       <r>   13.5590    0.0000 </r>
       <r>   13.9066    0.0000 </r>
       <r>   14.6332    0.0000 </r>
       <r>   15.3010    0.0000 </r>
       <r>   16.0911    0.0000 </r>
       <r>   16.4658    0.0000 </r>
       <r>   17.0302    0.0000 </r>
       <r>   17.5663    0.0000 </r>
       <r>   18.2852    0.0000 </r>
       <r>   18.8975    0.0000 </r>
       <r>   20.3894    0.0000 </r>
       <r>   21.2160    0.0000 </r>
       <r>   22.4062    0.0000 </r>
       <r>   22.8504    0.0000 </r>
       <r>   24.4564    0.0000 </r>
       <r>   24.8383    0.0000 </r>
       <r>   27.5048    0.0000 </r>
       <r>   28.3373    0.0000 </r>
       <r>   28.8219    0.0000 </r>
       <r>   28.9590    0.0000 </r>
       <r>   29.7182    0.0000 </r>
       <r>   30.4138    0.0000 </r>
      </set>
      <set comment="kpoint 28">
       <r>    1.9997    1.0000 </r>
       <r>    2.8084    1.0000 </r>
       <r>    3.7659    1.0000 </r>
       <r>    4.2246    1.0000 </r>
       <r>    4.8313    1.0000 </r>
       <r>    6.1284    1.0000 </r>
       <r>    7.0399    1.0000 </r>
       <r>    8.6327   -0.0000 </r>
       <r>   10.1141   -0.0000 </r>
       <r>   11.7346   -0.0000 </r>
       <r>   13.6636    0.0000 </r>
       <r>   13.6893    0.0000 </r>
       <r>   14.3900    0.0000 </r>
       <r>   14.7692    0.0000 </r>
       <r>   15.8478    0.0000 </r>
       <r>   16.0437    0.0000 </r>
       <r>   16.5439    0.0000 </r>
       <r>   17.4438    0.0000 </r>
       <r>   18.0428    0.0000 </r>
       <r>   18.8929    0.0000 </r>
       <r>   20.0538    0.0000 </r>
       <r>   20.9751    0.0000 </r>
       <r>   21.4930    0.0000 </r>
       <r>   22.7866    0.0000 </r>
       <r>   24.6130    0.0000 </r>
       <r>   24.9964    0.0000 </r>
       <r>   26.3913    0.0000 </r>
       <r>   27.9482    0.0000 </r>
       <r>   28.8208    0.0000 </r>
       <r>   29.9440    0.0000 </r>
       <r>   30.8973    0.0000 </r>
       <r>   32.0920    0.0000 </r>
      </set>
      <set comment="kpoint 29">
       <r>   -2.6106    1.0000 </r>
       <r>   -1.7662    1.0000 </r>
       <r>   -0.0924    1.0000 </r>
       <r>    2.3813    1.0000 </r>
       <r>    5.6292    1.0000 </r>
       <r>    9.5713   -0.0000 </r>
       <r>   13.9824    0.0000 </r>
       <r>   14.9228    0.0000 </r>
       <r>   15.1872    0.0000 </r>
       <r>   15.6836    0.0000 </r>
       <r>   15.7014    0.0000 </r>
       <r>   17.1870    0.0000 </r>
       <r>   17.2434    0.0000 </r>
       <r>   19.1080    0.0000 </r>
       <r>   19.4069    0.0000 </r>
       <r>   19.4270    0.0000 </r>
       <r>   20.2791    0.0000 </r>
       <r>   20.4086    0.0000 </r>
       <r>   20.8743    0.0000 </r>
       <r>   20.9203    0.0000 </r>
       <r>   22.3138    0.0000 </r>
       <r>   22.5061    0.0000 </r>
       <r>   22.5867    0.0000 </r>
       <r>   23.0266    0.0000 </r>
       <r>   24.2739    0.0000 </r>
       <r>   24.5475    0.0000 </r>
       <r>   25.2326    0.0000 </r>
       <r>   25.6178    0.0000 </r>
       <r>   25.6594    0.0000 </r>
       <r>   25.7217    0.0000 </r>
       <r>   26.3148    0.0000 </r>
       <r>   26.6210    0.0000 </r>
      </set>
      <set comment="kpoint 30">
       <r>   -2.0432    1.0000 </r>
       <r>   -1.2022    1.0000 </r>
       <r>    0.4648    1.0000 </r>
       <r>    2.9269    1.0000 </r>
       <r>    6.1557    1.0000 </r>
       <r>   10.0225   -0.0000 </r>
       <r>   12.1675    0.0000 </r>
       <r>   12.9053    0.0000 </r>
       <r>   13.7455    0.0000 </r>
       <r>   14.1830    0.0000 </r>
       <r>   14.5436    0.0000 </r>
       <r>   15.1664    0.0000 </r>
       <r>   16.0369    0.0000 </r>
       <r>   16.9317    0.0000 </r>
       <r>   18.3753    0.0000 </r>
       <r>   19.0201    0.0000 </r>
       <r>   19.4709    0.0000 </r>
       <r>   19.6593    0.0000 </r>
       <r>   20.9617    0.0000 </r>
       <r>   21.2046    0.0000 </r>
       <r>   21.7760    0.0000 </r>
       <r>   22.2735    0.0000 </r>
       <r>   23.1531    0.0000 </r>
       <r>   23.6428    0.0000 </r>
       <r>   23.7882    0.0000 </r>
       <r>   24.4398    0.0000 </r>
       <r>   25.2943    0.0000 </r>
       <r>   25.8442    0.0000 </r>
       <r>   26.7011    0.0000 </r>
       <r>   27.1385    0.0000 </r>
       <r>   27.6955    0.0000 </r>
       <r>   27.9151    0.0000 </r>
      </set>
      <set comment="kpoint 31">
       <r>   -1.1964    1.0000 </r>
       <r>   -0.3605    1.0000 </r>
       <r>    1.2958    1.0000 </r>
       <r>    3.7380    1.0000 </r>
       <r>    6.9114    1.0000 </r>
       <r>    9.4414   -0.0000 </r>
       <r>   10.1886   -0.0000 </r>
       <r>   11.0513   -0.0000 </r>
       <r>   11.8366   -0.0000 </r>
       <r>   12.8639    0.0000 </r>
       <r>   13.7413    0.0000 </r>
       <r>   14.1517    0.0000 </r>
       <r>   15.1038    0.0000 </r>
       <r>   15.8942    0.0000 </r>
       <r>   17.0702    0.0000 </r>
       <r>   17.6956    0.0000 </r>
       <r>   18.4314    0.0000 </r>
       <r>   19.0043    0.0000 </r>
       <r>   20.2756    0.0000 </r>
       <r>   20.3604    0.0000 </r>
       <r>   21.4795    0.0000 </r>
       <r>   21.9760    0.0000 </r>
       <r>   22.9128    0.0000 </r>
       <r>   23.9488    0.0000 </r>
       <r>   24.8325    0.0000 </r>
       <r>   25.1014    0.0000 </r>
       <r>   26.0405    0.0000 </r>
       <r>   26.3026    0.0000 </r>
       <r>   26.7843    0.0000 </r>
       <r>   27.2740    0.0000 </r>
       <r>   28.4295    0.0000 </r>
       <r>   29.0923    0.0000 </r>
      </set>
      <set comment="kpoint 32">
       <r>   -0.0754    1.0000 </r>
       <r>    0.7534    1.0000 </r>
       <r>    2.3932    1.0000 </r>
       <r>    4.7901    1.0000 </r>
       <r>    6.9658    1.0000 </r>
       <r>    7.6582    1.0295 </r>
       <r>    8.3920   -0.0038 </r>
       <r>    9.4542   -0.0000 </r>
       <r>   11.5931   -0.0000 </r>
       <r>   11.8560   -0.0000 </r>
       <r>   12.5660    0.0000 </r>
       <r>   13.1217    0.0000 </r>
       <r>   14.6120    0.0000 </r>
       <r>   15.0517    0.0000 </r>
       <r>   16.3676    0.0000 </r>
       <r>   17.1429    0.0000 </r>
       <r>   17.6894    0.0000 </r>
       <r>   18.2961    0.0000 </r>
       <r>   19.1993    0.0000 </r>
       <r>   19.9171    0.0000 </r>
       <r>   20.3579    0.0000 </r>
       <r>   21.9651    0.0000 </r>
       <r>   22.6323    0.0000 </r>
       <r>   23.4624    0.0000 </r>
       <r>   24.3156    0.0000 </r>
       <r>   25.6655    0.0000 </r>
       <r>   26.9271    0.0000 </r>
       <r>   27.5511    0.0000 </r>
       <r>   27.8131    0.0000 </r>
       <r>   28.6050    0.0000 </r>
       <r>   29.2055    0.0000 </r>
       <r>   29.3777    0.0000 </r>
      </set>
      <set comment="kpoint 33">
       <r>    1.3125    1.0000 </r>
       <r>    2.1303    1.0000 </r>
       <r>    3.7300    1.0000 </r>
       <r>    4.8062    1.0000 </r>
       <r>    5.7221    1.0000 </r>
       <r>    6.1804    1.0000 </r>
       <r>    7.4134    1.0005 </r>
       <r>    9.3327   -0.0000 </r>
       <r>    9.7645   -0.0000 </r>
       <r>   11.7625   -0.0000 </r>
       <r>   12.5062    0.0000 </r>
       <r>   12.8228    0.0000 </r>
       <r>   13.7775    0.0000 </r>
       <r>   14.2877    0.0000 </r>
       <r>   16.4265    0.0000 </r>
       <r>   16.4726    0.0000 </r>
       <r>   17.3137    0.0000 </r>
       <r>   17.9014    0.0000 </r>
       <r>   18.7253    0.0000 </r>
       <r>   19.6196    0.0000 </r>
       <r>   19.8412    0.0000 </r>
       <r>   21.2021    0.0000 </r>
       <r>   22.5816    0.0000 </r>
       <r>   23.4723    0.0000 </r>
       <r>   23.6037    0.0000 </r>
       <r>   25.4068    0.0000 </r>
       <r>   27.2315    0.0000 </r>
       <r>   27.7238    0.0000 </r>
       <r>   29.0845    0.0000 </r>
       <r>   29.3543    0.0000 </r>
       <r>   29.9789    0.0000 </r>
       <r>   30.8948    0.0000 </r>
      </set>
      <set comment="kpoint 34">
       <r>    2.9039    1.0000 </r>
       <r>    3.0099    1.0000 </r>
       <r>    3.6897    1.0000 </r>
       <r>    3.7863    1.0000 </r>
       <r>    5.3897    1.0000 </r>
       <r>    5.4784    1.0000 </r>
       <r>    7.8028    0.9710 </r>
       <r>    7.9230    0.6110 </r>
       <r>   10.7774   -0.0000 </r>
       <r>   10.9319   -0.0000 </r>
       <r>   12.0154    0.0000 </r>
       <r>   12.5784    0.0000 </r>
       <r>   14.0188    0.0000 </r>
       <r>   14.9267    0.0000 </r>
       <r>   15.0940    0.0000 </r>
       <r>   16.3429    0.0000 </r>
       <r>   17.2542    0.0000 </r>
       <r>   17.9136    0.0000 </r>
       <r>   19.0179    0.0000 </r>
       <r>   19.5219    0.0000 </r>
       <r>   19.8960    0.0000 </r>
       <r>   20.3180    0.0000 </r>
       <r>   22.3171    0.0000 </r>
       <r>   23.4320    0.0000 </r>
       <r>   23.9642    0.0000 </r>
       <r>   25.4281    0.0000 </r>
       <r>   26.5063    0.0000 </r>
       <r>   27.6521    0.0000 </r>
       <r>   29.1372    0.0000 </r>
       <r>   30.3970    0.0000 </r>
       <r>   30.7741    0.0000 </r>
       <r>   31.8700    0.0000 </r>
      </set>
      <set comment="kpoint 35">
       <r>   -1.3372    1.0000 </r>
       <r>   -0.5004    1.0000 </r>
       <r>    1.1578    1.0000 </r>
       <r>    3.6039    1.0000 </r>
       <r>    6.7963    1.0000 </r>
       <r>   10.3405   -0.0000 </r>
       <r>   11.1193   -0.0000 </r>
       <r>   11.2630   -0.0000 </r>
       <r>   11.8670   -0.0000 </r>
       <r>   12.0026    0.0000 </r>
       <r>   13.4538    0.0000 </r>
       <r>   13.5217    0.0000 </r>
       <r>   15.2059    0.0000 </r>
       <r>   15.7502    0.0000 </r>
       <r>   16.4018    0.0000 </r>
       <r>   18.6292    0.0000 </r>
       <r>   18.9181    0.0000 </r>
       <r>   20.4763    0.0000 </r>
       <r>   21.1824    0.0000 </r>
       <r>   21.5891    0.0000 </r>
       <r>   22.2459    0.0000 </r>
       <r>   22.3150    0.0000 </r>
       <r>   22.5587    0.0000 </r>
       <r>   23.0178    0.0000 </r>
       <r>   23.7879    0.0000 </r>
       <r>   24.2058    0.0000 </r>
       <r>   25.3020    0.0000 </r>
       <r>   25.5841    0.0000 </r>
       <r>   27.4020    0.0000 </r>
       <r>   27.4338    0.0000 </r>
       <r>   28.0102    0.0000 </r>
       <r>   29.0140    0.0000 </r>
      </set>
      <set comment="kpoint 36">
       <r>   -0.3548    1.0000 </r>
       <r>    0.4759    1.0000 </r>
       <r>    2.1205    1.0000 </r>
       <r>    4.5373    1.0000 </r>
       <r>    7.5633    1.0099 </r>
       <r>    8.6314   -0.0000 </r>
       <r>    9.3668   -0.0000 </r>
       <r>   10.2178   -0.0000 </r>
       <r>   10.6563   -0.0000 </r>
       <r>   11.1837   -0.0000 </r>
       <r>   12.0743    0.0000 </r>
       <r>   12.7063    0.0000 </r>
       <r>   13.4595    0.0000 </r>
       <r>   14.9348    0.0000 </r>
       <r>   16.4924    0.0000 </r>
       <r>   16.7035    0.0000 </r>
       <r>   18.0718    0.0000 </r>
       <r>   20.0126    0.0000 </r>
       <r>   20.7777    0.0000 </r>
       <r>   21.4193    0.0000 </r>
       <r>   21.8646    0.0000 </r>
       <r>   22.0411    0.0000 </r>
       <r>   23.2864    0.0000 </r>
       <r>   23.8910    0.0000 </r>
       <r>   24.2625    0.0000 </r>
       <r>   24.8606    0.0000 </r>
       <r>   25.9615    0.0000 </r>
       <r>   26.0261    0.0000 </r>
       <r>   26.4949    0.0000 </r>
       <r>   27.8960    0.0000 </r>
       <r>   28.2381    0.0000 </r>
       <r>   29.4241    0.0000 </r>
      </set>
      <set comment="kpoint 37">
       <r>    0.8980    1.0000 </r>
       <r>    1.7198    1.0000 </r>
       <r>    3.3406    1.0000 </r>
       <r>    5.5966    1.0000 </r>
       <r>    6.3559    1.0000 </r>
       <r>    7.0113    1.0000 </r>
       <r>    8.6444   -0.0000 </r>
       <r>    8.9125   -0.0000 </r>
       <r>    9.7472   -0.0000 </r>
       <r>   10.6476   -0.0000 </r>
       <r>   11.1255   -0.0000 </r>
       <r>   12.2259    0.0000 </r>
       <r>   13.0970    0.0000 </r>
       <r>   14.2402    0.0000 </r>
       <r>   14.7256    0.0000 </r>
       <r>   17.3186    0.0000 </r>
       <r>   17.7089    0.0000 </r>
       <r>   18.4163    0.0000 </r>
       <r>   20.2536    0.0000 </r>
       <r>   20.9771    0.0000 </r>
       <r>   21.4241    0.0000 </r>
       <r>   22.0575    0.0000 </r>
       <r>   23.1645    0.0000 </r>
       <r>   23.5125    0.0000 </r>
       <r>   24.9309    0.0000 </r>
       <r>   25.8290    0.0000 </r>
       <r>   26.5084    0.0000 </r>
       <r>   27.1656    0.0000 </r>
       <r>   27.4534    0.0000 </r>
       <r>   28.5365    0.0000 </r>
[...]
        <r>  0.0391  0.0286  0.0043  0.0104  0.0000  0.0000  0.0000  0.0000  0.0000 </r>
       </set>
       <set comment="band 18">
        <r>  0.0037  0.0056  0.0385  0.0017  0.0000  0.0000  0.0000  0.0000  0.0000 </r>
        <r>  0.0391  0.0286  0.0043  0.0104  0.0000  0.0000  0.0000  0.0000  0.0000 </r>
        <r>  0.0201  0.0276  0.0070  0.0098  0.0000  0.0000  0.0000  0.0000  0.0000 </r>
        <r>  0.0069  0.0050  0.0245  0.0018  0.0000  0.0000  0.0000  0.0000  0.0000 </r>
       </set>
       <set comment="band 19">
        <r>  0.0004  0.0236  0.0012  0.0102  0.0000  0.0000  0.0000  0.0000  0.0000 </r>
        <r>  0.0025  0.0214  0.0145  0.0131  0.0000  0.0000  0.0000  0.0000  0.0000 </r>
        <r>  0.0000  0.0044  0.0406  0.0046  0.0000  0.0000  0.0000  0.0000  0.0000 </r>
        <r>  0.0015  0.0127  0.0244  0.0078  0.0000  0.0000  0.0000  0.0000  0.0000 </r>
       </set>
       <set comment="band 20">
        <r>  0.0000  0.0044  0.0406  0.0046  0.0000  0.0000  0.0000  0.0000  0.0000 </r>
        <r>  0.0015  0.0127  0.0244  0.0078  0.0000  0.0000  0.0000  0.0000  0.0000 </r>
        <r>  0.0004  0.0236  0.0012  0.0102  0.0000  0.0000  0.0000  0.0000  0.0000 </r>
        <r>  0.0025  0.0214  0.0145  0.0131  0.0000  0.0000  0.0000  0.0000  0.0000 </r>
       </set>
       <set comment="band 21">
        <r>  0.0005  0.0031  0.0505  0.0086  0.0000  0.0000  0.0000  0.0000  0.0000 </r>
        <r>  0.0096  0.0007  0.0045  0.0015  0.0000  0.0000  0.0000  0.0000  0.0000 </r>
        <r>  0.0175  0.0000  0.0015  0.0005  0.0000  0.0000  0.0000  0.0000  0.0000 </r>
        <r>  0.0095  0.0007  0.0046  0.0014  0.0000  0.0000  0.0000  0.0000  0.0000 </r>
       </set>
       <set comment="band 22">
        <r>  0.0175  0.0000  0.0015  0.0005  0.0000  0.0000  0.0000  0.0000  0.0000 </r>
        <r>  0.0095  0.0007  0.0046  0.0014  0.0000  0.0000  0.0000  0.0000  0.0000 </r>
        <r>  0.0005  0.0031  0.0505  0.0086  0.0000  0.0000  0.0000  0.0000  0.0000 </r>
        <r>  0.0096  0.0007  0.0045  0.0015  0.0000  0.0000  0.0000  0.0000  0.0000 </r>
       </set>
       <set comment="band 23">
        <r>  0.0010  0.0041  0.0130  0.0026  0.0000  0.0000  0.0000  0.0000  0.0000 </r>
        <r>  0.0097  0.0252  0.0341  0.0120  0.0000  0.0000  0.0000  0.0000  0.0000 </r>
        <r>  0.0324  0.0518  0.0004  0.0192  0.0000  0.0000  0.0000  0.0000  0.0000 </r>
        <r>  0.0054  0.0139  0.0615  0.0066  0.0000  0.0000  0.0000  0.0000  0.0000 </r>
       </set>
       <set comment="band 24">
        <r>  0.0324  0.0518  0.0004  0.0192  0.0000  0.0000  0.0000  0.0000  0.0000 </r>
        <r>  0.0054  0.0139  0.0615  0.0066  0.0000  0.0000  0.0000  0.0000  0.0000 </r>
        <r>  0.0010  0.0041  0.0130  0.0026  0.0000  0.0000  0.0000  0.0000  0.0000 </r>
        <r>  0.0097  0.0252  0.0341  0.0120  0.0000  0.0000  0.0000  0.0000  0.0000 </r>
       </set>
       <set comment="band 25">
        <r>  0.0025  0.0008  0.0438  0.0002  0.0000  0.0000  0.0000  0.0000  0.0000 </r>
        <r>  0.0003  0.0210  0.0116  0.0074  0.0000  0.0000  0.0000  0.0000  0.0000 </r>
        <r>  0.0200  0.0056  0.0056  0.0019  0.0000  0.0000  0.0000  0.0000  0.0000 </r>
        <r>  0.0002  0.0187  0.0130  0.0066  0.0000  0.0000  0.0000  0.0000  0.0000 </r>
       </set>
       <set comment="band 26">
        <r>  0.0200  0.0056  0.0056  0.0019  0.0000  0.0000  0.0000  0.0000  0.0000 </r>
        <r>  0.0002  0.0187  0.0130  0.0066  0.0000  0.0000  0.0000  0.0000  0.0000 </r>
        <r>  0.0025  0.0008  0.0438  0.0002  0.0000  0.0000  0.0000  0.0000  0.0000 </r>
        <r>  0.0003  0.0210  0.0116  0.0074  0.0000  0.0000  0.0000  0.0000  0.0000 </r>
       </set>
       <set comment="band 27">
        <r>  0.0002  0.0152  0.0000  0.0146  0.0000  0.0000  0.0000  0.0000  0.0000 </r>
        <r>  0.0202  0.0207  0.0048  0.0074  0.0000  0.0000  0.0000  0.0000  0.0000 </r>
        <r>  0.0003  0.0348  0.0000  0.0043  0.0000  0.0000  0.0000  0.0000  0.0000 </r>
        <r>  0.0118  0.0121  0.0082  0.0043  0.0000  0.0000  0.0000  0.0000  0.0000 </r>
       </set>
       <set comment="band 28">
        <r>  0.0003  0.0348  0.0000  0.0043  0.0000  0.0000  0.0000  0.0000  0.0000 </r>
        <r>  0.0118  0.0121  0.0082  0.0043  0.0000  0.0000  0.0000  0.0000  0.0000 </r>
        <r>  0.0002  0.0152  0.0000  0.0146  0.0000  0.0000  0.0000  0.0000  0.0000 </r>
        <r>  0.0202  0.0207  0.0048  0.0074  0.0000  0.0000  0.0000  0.0000  0.0000 </r>
       </set>
       <set comment="band 29">
        <r>  0.0001  0.0145  0.0007  0.0520  0.0000  0.0000  0.0000  0.0000  0.0000 </r>
        <r>  0.0028  0.0089  0.0011  0.0246  0.0000  0.0000  0.0000  0.0000  0.0000 </r>
        <r>  0.0030  0.0050  0.0000  0.0006  0.0000  0.0000  0.0000  0.0000  0.0000 </r>
        <r>  0.0020  0.0064  0.0016  0.0176  0.0000  0.0000  0.0000  0.0000  0.0000 </r>
       </set>
       <set comment="band 30">
        <r>  0.0030  0.0050  0.0000  0.0006  0.0000  0.0000  0.0000  0.0000  0.0000 </r>
        <r>  0.0020  0.0064  0.0016  0.0176  0.0000  0.0000  0.0000  0.0000  0.0000 </r>
        <r>  0.0001  0.0145  0.0007  0.0520  0.0000  0.0000  0.0000  0.0000  0.0000 </r>
        <r>  0.0028  0.0089  0.0011  0.0246  0.0000  0.0000  0.0000  0.0000  0.0000 </r>
       </set>
       <set comment="band 31">
        <r>  0.0062  0.0190  0.0012  0.0017  0.0000  0.0000  0.0000  0.0000  0.0000 </r>
        <r>  0.0019  0.0081  0.0005  0.0118  0.0000  0.0000  0.0000  0.0000  0.0000 </r>
        <r>  0.0005  0.0026  0.0163  0.0226  0.0000  0.0000  0.0000  0.0000  0.0000 </r>
        <r>  0.0031  0.0131  0.0003  0.0192  0.0000  0.0000  0.0000  0.0000  0.0000 </r>
       </set>
       <set comment="band 32">
        <r>  0.0005  0.0026  0.0163  0.0226  0.0000  0.0000  0.0000  0.0000  0.0000 </r>
        <r>  0.0031  0.0131  0.0003  0.0192  0.0000  0.0000  0.0000  0.0000  0.0000 </r>
        <r>  0.0062  0.0190  0.0012  0.0017  0.0000  0.0000  0.0000  0.0000  0.0000 </r>
        <r>  0.0019  0.0081  0.0005  0.0118  0.0000  0.0000  0.0000  0.0000  0.0000 </r>
       </set>
      </set>
      <set comment="kpoint 63">
       <set comment="band 1">
        <r>  0.0630  0.0000  0.0004  0.0516  0.0000  0.0000  0.0000  0.0000  0.0000 </r>
        <r>  0.0443  0.0005  0.0012  0.0426  0.0000  0.0000  0.0000  0.0000  0.0000 </r>
        <r>  0.0049  0.0000  0.0047  0.0040  0.0000  0.0000  0.0000  0.0000  0.0000 </r>
        <r>  0.0181  0.0002  0.0028  0.0174  0.0000  0.0000  0.0000  0.0000  0.0000 </r>
       </set>
       <set comment="band 2">
        <r>  0.0049  0.0000  0.0047  0.0040  0.0000  0.0000  0.0000  0.0000  0.0000 </r>
        <r>  0.0181  0.0002  0.0028  0.0174  0.0000  0.0000  0.0000  0.0000  0.0000 </r>
        <r>  0.0630  0.0000  0.0004  0.0516  0.0000  0.0000  0.0000  0.0000  0.0000 </r>
        <r>  0.0443  0.0005  0.0012  0.0426  0.0000  0.0000  0.0000  0.0000  0.0000 </r>
       </set>
       <set comment="band 3">
        <r>  0.0509  0.0000  0.0012  0.0540  0.0000  0.0000  0.0000  0.0000  0.0000 </r>
        <r>  0.0111  0.0543  0.0014  0.0145  0.0000  0.0000  0.0000  0.0000  0.0000 </r>
        <r>  0.0046  0.0002  0.0127  0.0049  0.0000  0.0000  0.0000  0.0000  0.0000 </r>
        <r>  0.0036  0.0175  0.0045  0.0047  0.0000  0.0000  0.0000  0.0000  0.0000 </r>
       </set>
       <set comment="band 4">
        <r>  0.0046  0.0002  0.0127  0.0049  0.0000  0.0000  0.0000  0.0000  0.0000 </r>
        <r>  0.0036  0.0175  0.0045  0.0047  0.0000  0.0000  0.0000  0.0000  0.0000 </r>
        <r>  0.0509  0.0000  0.0012  0.0540  0.0000  0.0000  0.0000  0.0000  0.0000 </r>
        <r>  0.0111  0.0543  0.0014  0.0145  0.0000  0.0000  0.0000  0.0000  0.0000 </r>
       </set>
       <set comment="band 5">
        <r>  0.0001  0.0030  0.0000  0.0004  0.0000  0.0000  0.0000  0.0000  0.0000 </r>
        <r>  0.0518  0.0107  0.0023  0.0182  0.0000  0.0000  0.0000  0.0000  0.0000 </r>
        <r>  0.0000  0.1009  0.0000  0.0000  0.0000  0.0000  0.0000  0.0000  0.0000 </r>
        <r>  0.0258  0.0053  0.0047  0.0091  0.0000  0.0000  0.0000  0.0000  0.0000 </r>
       </set>
       <set comment="band 6">
        <r>  0.0000  0.1009  0.0000  0.0000  0.0000  0.0000  0.0000  0.0000  0.0000 </r>
        <r>  0.0258  0.0053  0.0047  0.0091  0.0000  0.0000  0.0000  0.0000  0.0000 </r>
        <r>  0.0001  0.0030  0.0000  0.0004  0.0000  0.0000  0.0000  0.0000  0.0000 </r>
        <r>  0.0518  0.0107  0.0023  0.0182  0.0000  0.0000  0.0000  0.0000  0.0000 </r>
       </set>
       <set comment="band 7">
        <r>  0.0704  0.0004  0.0018  0.0203  0.0000  0.0000  0.0000  0.0000  0.0000 </r>
        <r>  0.0177  0.0080  0.0207  0.0190  0.0000  0.0000  0.0000  0.0000  0.0000 </r>
        <r>  0.0087  0.0031  0.0144  0.0025  0.0000  0.0000  0.0000  0.0000  0.0000 </r>
        <r>  0.0231  0.0104  0.0158  0.0248  0.0000  0.0000  0.0000  0.0000  0.0000 </r>
       </set>
       <set comment="band 8">
        <r>  0.0087  0.0031  0.0144  0.0025  0.0000  0.0000  0.0000  0.0000  0.0000 </r>
        <r>  0.0231  0.0104  0.0158  0.0248  0.0000  0.0000  0.0000  0.0000  0.0000 </r>
        <r>  0.0704  0.0004  0.0018  0.0203  0.0000  0.0000  0.0000  0.0000  0.0000 </r>
        <r>  0.0177  0.0080  0.0207  0.0190  0.0000  0.0000  0.0000  0.0000  0.0000 </r>
       </set>
       <set comment="band 9">
        <r>  0.0815  0.0050  0.0125  0.0083  0.0000  0.0000  0.0000  0.0000  0.0000 </r>
        <r>  0.0086  0.0486  0.0015  0.0011  0.0000  0.0000  0.0000  0.0000  0.0000 </r>
        <r>  0.0302  0.0134  0.0338  0.0031  0.0000  0.0000  0.0000  0.0000  0.0000 </r>
        <r>  0.0007  0.0038  0.0195  0.0001  0.0000  0.0000  0.0000  0.0000  0.0000 </r>
       </set>
       <set comment="band 10">
        <r>  0.0302  0.0134  0.0338  0.0031  0.0000  0.0000  0.0000  0.0000  0.0000 </r>
        <r>  0.0007  0.0038  0.0195  0.0001  0.0000  0.0000  0.0000  0.0000  0.0000 </r>
        <r>  0.0815  0.0050  0.0125  0.0083  0.0000  0.0000  0.0000  0.0000  0.0000 </r>
        <r>  0.0086  0.0486  0.0015  0.0011  0.0000  0.0000  0.0000  0.0000  0.0000 </r>
       </set>
       <set comment="band 11">
        <r>  0.0100  0.0210  0.0065  0.0097  0.0000  0.0000  0.0000  0.0000  0.0000 </r>
        <r>  0.1524  0.0001  0.0001  0.0163  0.0000  0.0000  0.0000  0.0000  0.0000 </r>
        <r>  0.0133  0.0158  0.0049  0.0128  0.0000  0.0000  0.0000  0.0000  0.0000 </r>
        <r>  0.0048  0.0000  0.0021  0.0005  0.0000  0.0000  0.0000  0.0000  0.0000 </r>
       </set>
       <set comment="band 12">
        <r>  0.0133  0.0158  0.0049  0.0128  0.0000  0.0000  0.0000  0.0000  0.0000 </r>
        <r>  0.0048  0.0000  0.0021  0.0005  0.0000  0.0000  0.0000  0.0000  0.0000 </r>
        <r>  0.0100  0.0210  0.0065  0.0097  0.0000  0.0000  0.0000  0.0000  0.0000 </r>
        <r>  0.1524  0.0001  0.0001  0.0163  0.0000  0.0000  0.0000  0.0000  0.0000 </r>
       </set>
       <set comment="band 13">
        <r>  0.0237  0.0040  0.0170  0.0156  0.0000  0.0000  0.0000  0.0000  0.0000 </r>
        <r>  0.0095  0.0003  0.0547  0.0178  0.0000  0.0000  0.0000  0.0000  0.0000 </r>
        <r>  0.0213  0.0045  0.0190  0.0140  0.0000  0.0000  0.0000  0.0000  0.0000 </r>
        <r>  0.0112  0.0003  0.0465  0.0210  0.0000  0.0000  0.0000  0.0000  0.0000 </r>
       </set>
       <set comment="band 14">
        <r>  0.0213  0.0045  0.0190  0.0140  0.0000  0.0000  0.0000  0.0000  0.0000 </r>
        <r>  0.0112  0.0003  0.0465  0.0210  0.0000  0.0000  0.0000  0.0000  0.0000 </r>
        <r>  0.0237  0.0040  0.0170  0.0156  0.0000  0.0000  0.0000  0.0000  0.0000 </r>
        <r>  0.0095  0.0003  0.0547  0.0178  0.0000  0.0000  0.0000  0.0000  0.0000 </r>
       </set>
       <set comment="band 15">
        <r>  0.0556  0.0056  0.0303  0.0077  0.0000  0.0000  0.0000  0.0000  0.0000 </r>
        <r>  0.0046  0.0419  0.0088  0.0022  0.0000  0.0000  0.0000  0.0000  0.0000 </r>
        <r>  0.0273  0.0115  0.0618  0.0038  0.0000  0.0000  0.0000  0.0000  0.0000 </r>
        <r>  0.0010  0.0087  0.0425  0.0005  0.0000  0.0000  0.0000  0.0000  0.0000 </r>
       </set>
       <set comment="band 16">
        <r>  0.0273  0.0115  0.0618  0.0038  0.0000  0.0000  0.0000  0.0000  0.0000 </r>
        <r>  0.0010  0.0087  0.0425  0.0005  0.0000  0.0000  0.0000  0.0000  0.0000 </r>
        <r>  0.0556  0.0056  0.0303  0.0077  0.0000  0.0000  0.0000  0.0000  0.0000 </r>
        <r>  0.0046  0.0419  0.0088  0.0022  0.0000  0.0000  0.0000  0.0000  0.0000 </r>
       </set>
       <set comment="band 17">
        <r>  0.0014  0.0223  0.0183  0.0012  0.0000  0.0000  0.0000  0.0000  0.0000 </r>
        <r>  0.0258  0.0004  0.0031  0.0042  0.0000  0.0000  0.0000  0.0000  0.0000 </r>
        <r>  0.0137  0.0022  0.0018  0.0122  0.0000  0.0000  0.0000  0.0000  0.0000 </r>
        <r>  0.0721  0.0012  0.0011  0.0118  0.0000  0.0000  0.0000  0.0000  0.0000 </r>
       </set>
       <set comment="band 18">
        <r>  0.0137  0.0022  0.0018  0.0122  0.0000  0.0000  0.0000  0.0000  0.0000 </r>
        <r>  0.0721  0.0012  0.0011  0.0118  0.0000  0.0000  0.0000  0.0000  0.0000 </r>
        <r>  0.0014  0.0223  0.0183  0.0012  0.0000  0.0000  0.0000  0.0000  0.0000 </r>
        <r>  0.0258  0.0004  0.0031  0.0042  0.0000  0.0000  0.0000  0.0000  0.0000 </r>
       </set>
       <set comment="band 19">
        <r>  0.0052  0.0003  0.0494  0.0015  0.0000  0.0000  0.0000  0.0000  0.0000 </r>
        <r>  0.0052  0.0019  0.0282  0.0052  0.0000  0.0000  0.0000  0.0000  0.0000 </r>
        <r>  0.0140  0.0001  0.0184  0.0041  0.0000  0.0000  0.0000  0.0000  0.0000 </r>
        <r>  0.0064  0.0023  0.0229  0.0065  0.0000  0.0000  0.0000  0.0000  0.0000 </r>
       </set>
       <set comment="band 20">
        <r>  0.0140  0.0001  0.0184  0.0041  0.0000  0.0000  0.0000  0.0000  0.0000 </r>
        <r>  0.0064  0.0023  0.0229  0.0065  0.0000  0.0000  0.0000  0.0000  0.0000 </r>
        <r>  0.0052  0.0003  0.0494  0.0015  0.0000  0.0000  0.0000  0.0000  0.0000 </r>
        <r>  0.0052  0.0019  0.0282  0.0052  0.0000  0.0000  0.0000  0.0000  0.0000 </r>
       </set>
       <set comment="band 21">
        <r>  0.0039  0.0020  0.0453  0.0093  0.0000  0.0000  0.0000  0.0000  0.0000 </r>
        <r>  0.0007  0.0044  0.0217  0.0025  0.0000  0.0000  0.0000  0.0000  0.0000 </r>
        <r>  0.0071  0.0011  0.0250  0.0169  0.0000  0.0000  0.0000  0.0000  0.0000 </r>
        <r>  0.0032  0.0186  0.0051  0.0106  0.0000  0.0000  0.0000  0.0000  0.0000 </r>
       </set>
       <set comment="band 22">
        <r>  0.0071  0.0011  0.0250  0.0169  0.0000  0.0000  0.0000  0.0000  0.0000 </r>
        <r>  0.0032  0.0186  0.0051  0.0106  0.0000  0.0000  0.0000  0.0000  0.0000 </r>
        <r>  0.0039  0.0020  0.0453  0.0093  0.0000  0.0000  0.0000  0.0000  0.0000 </r>
        <r>  0.0007  0.0044  0.0217  0.0025  0.0000  0.0000  0.0000  0.0000  0.0000 </r>
       </set>
       <set comment="band 23">
        <r>  0.0005  0.0131  0.0009  0.0000  0.0000  0.0000  0.0000  0.0000  0.0000 </r>
        <r>  0.0096  0.0011  0.0148  0.0062  0.0000  0.0000  0.0000  0.0000  0.0000 </r>
        <r>  0.0007  0.0085  0.0006  0.0001  0.0000  0.0000  0.0000  0.0000  0.0000 </r>
        <r>  0.0018  0.0002  0.0795  0.0012  0.0000  0.0000  0.0000  0.0000  0.0000 </r>
       </set>
       <set comment="band 24">
        <r>  0.0007  0.0085  0.0006  0.0001  0.0000  0.0000  0.0000  0.0000  0.0000 </r>
        <r>  0.0018  0.0002  0.0795  0.0012  0.0000  0.0000  0.0000  0.0000  0.0000 </r>
        <r>  0.0005  0.0131  0.0009  0.0000  0.0000  0.0000  0.0000  0.0000  0.0000 </r>
        <r>  0.0096  0.0011  0.0148  0.0062  0.0000  0.0000  0.0000  0.0000  0.0000 </r>
       </set>
       <set comment="band 25">
        <r>  0.0022  0.0418  0.0003  0.0038  0.0000  0.0000  0.0000  0.0000  0.0000 </r>
        <r>  0.0043  0.0586  0.0030  0.0089  0.0000  0.0000  0.0000  0.0000  0.0000 </r>
        <r>  0.0014  0.0640  0.0005  0.0025  0.0000  0.0000  0.0000  0.0000  0.0000 </r>
        <r>  0.0015  0.0199  0.0088  0.0030  0.0000  0.0000  0.0000  0.0000  0.0000 </r>
       </set>
       <set comment="band 26">
        <r>  0.0014  0.0640  0.0005  0.0025  0.0000  0.0000  0.0000  0.0000  0.0000 </r>
        <r>  0.0015  0.0199  0.0088  0.0030  0.0000  0.0000  0.0000  0.0000  0.0000 </r>
        <r>  0.0022  0.0418  0.0003  0.0038  0.0000  0.0000  0.0000  0.0000  0.0000 </r>
        <r>  0.0043  0.0586  0.0030  0.0089  0.0000  0.0000  0.0000  0.0000  0.0000 </r>
       </set>
       <set comment="band 27">
        <r>  0.0093  0.0227  0.0049  0.0083  0.0000  0.0000  0.0000  0.0000  0.0000 </r>
        <r>  0.0041  0.0123  0.0001  0.0019  0.0000  0.0000  0.0000  0.0000  0.0000 </r>
        <r>  0.0147  0.0144  0.0031  0.0131  0.0000  0.0000  0.0000  0.0000  0.0000 </r>
        <r>  0.0137  0.0410  0.0000  0.0062  0.0000  0.0000  0.0000  0.0000  0.0000 </r>
       </set>
       <set comment="band 28">
        <r>  0.0147  0.0144  0.0031  0.0131  0.0000  0.0000  0.0000  0.0000  0.0000 </r>
        <r>  0.0137  0.0410  0.0000  0.0062  0.0000  0.0000  0.0000  0.0000  0.0000 </r>
        <r>  0.0093  0.0227  0.0049  0.0083  0.0000  0.0000  0.0000  0.0000  0.0000 </r>
        <r>  0.0041  0.0123  0.0001  0.0019  0.0000  0.0000  0.0000  0.0000  0.0000 </r>
       </set>
       <set comment="band 29">
        <r>  0.0000  0.0052  0.0022  0.0062  0.0000  0.0000  0.0000  0.0000  0.0000 </r>
        <r>  0.0001  0.0054  0.0008  0.0169  0.0000  0.0000  0.0000  0.0000  0.0000 </r>
        <r>  0.0001  0.0005  0.0002  0.0681  0.0000  0.0000  0.0000  0.0000  0.0000 </r>
        <r>  0.0003  0.0142  0.0003  0.0444  0.0000  0.0000  0.0000  0.0000  0.0000 </r>
       </set>
       <set comment="band 30">
        <r>  0.0001  0.0005  0.0002  0.0681  0.0000  0.0000  0.0000  0.0000  0.0000 </r>
        <r>  0.0003  0.0142  0.0003  0.0444  0.0000  0.0000  0.0000  0.0000  0.0000 </r>
        <r>  0.0000  0.0052  0.0022  0.0062  0.0000  0.0000  0.0000  0.0000  0.0000 </r>
        <r>  0.0001  0.0054  0.0008  0.0169  0.0000  0.0000  0.0000  0.0000  0.0000 </r>
       </set>
       <set comment="band 31">
        <r>  0.0027  0.0326  0.0056  0.0036  0.0000  0.0000  0.0000  0.0000  0.0000 </r>
        <r>  0.0033  0.0215  0.0005  0.0179  0.0000  0.0000  0.0000  0.0000  0.0000 </r>
        <r>  0.0062  0.0142  0.0025  0.0083  0.0000  0.0000  0.0000  0.0000  0.0000 </r>
        <r>  0.0041  0.0270  0.0004  0.0225  0.0000  0.0000  0.0000  0.0000  0.0000 </r>
       </set>
       <set comment="band 32">
        <r>  0.0062  0.0142  0.0025  0.0083  0.0000  0.0000  0.0000  0.0000  0.0000 </r>
        <r>  0.0041  0.0270  0.0004  0.0225  0.0000  0.0000  0.0000  0.0000  0.0000 </r>
        <r>  0.0027  0.0326  0.0056  0.0036  0.0000  0.0000  0.0000  0.0000  0.0000 </r>
        <r>  0.0033  0.0215  0.0005  0.0179  0.0000  0.0000  0.0000  0.0000  0.0000 </r>
       </set>
      </set>
     </set>
    </set>
   </array>
  </projected>
 </calculation>
 <structure name="finalpos" >
  <crystal>
   <varray name="basis" >
    <v>       1.43052312      -2.47773971      -0.00000000 </v>
    <v>       1.43052312       2.47773971       0.00000000 </v>
    <v>      -0.00000000      -0.00000000       9.33238359 </v>
   </varray>
   <i name="volume">     66.15659425 </i>
   <varray name="rec_basis" >
    <v>       0.34952249      -0.20179682       0.00000000 </v>
    <v>       0.34952249       0.20179682       0.00000000 </v>
    <v>       0.00000000      -0.00000000       0.10715376 </v>
   </varray>
  </crystal>
  <varray name="positions" >
   <v>       0.00000000       0.00000000       0.00000000 </v>
   <v>       0.33333300       0.66666700       0.25000000 </v>
   <v>       0.00000000       0.00000000       0.50000000 </v>
   <v>       0.66666700       0.33333300       0.75000000 </v>
  </varray>
 </structure>
</modeling>
