 vasp.6.4.3 19Mar24 (build Oct 16 2024 18:29:25) complex                        
  
 executed on             LinuxIFC date 2025.08.18  16:08:21
 running   16 mpi-ranks, with    1 threads/rank, on    1 nodes
 distrk:  each k-point on   16 cores,    1 groups
 distr:  one band on NCORE=   1 cores,   16 groups


--------------------------------------------------------------------------------------------------------


 INCAR:
   ALGO = Fast
   EDIFF = 0.0017000000000000001
   ENCUT = 520.0
   IBRION = 2
   ISIF = 3
   ISMEAR = -5
   ISPIN = 2
   LASPH = True
   LORBIT = 11
   LREAL = Auto
   LWAVE = False
   MAGMOM = 34*-0.0
   NELM = 100
   NSW = 99
   PREC = Accurate
   SIGMA = 0.05

 POTCAR:   PAW_PBE Al 04Jan2001                   
 POTCAR:    PAW_PBE S 17Jan2003                   
 POTCAR:   PAW_PBE O 08Apr2002                    
 POTCAR:   PAW_PBE Al 04Jan2001                   
   VRHFIN =Al: s2p1                                                                                 
   LEXCH  = PE                                                                                      
   EATOM  =    53.5387 eV,    3.9350 Ry                                                             
                                                                                                    
   TITEL  = PAW_PBE Al 04Jan2001                                                                    
   LULTRA =        F    use ultrasoft PP ?                                                          
   IUNSCR =        1    unscreen: 0-lin 1-nonlin 2-no                                               
   RPACOR =    1.500    partial core radius                                                         
   POMASS =   26.982; ZVAL   =    3.000    mass and valenz                                          
   RCORE  =    1.900    outmost cutoff radius                                                       
   RWIGS  =    2.650; RWIGS  =    1.402    wigner-seitz radius (au A)                               
   ENMAX  =  240.300; ENMIN  =  180.225 eV                                                          
   ICORE  =        2    local potential                                                             
   LCOR   =        T    correct aug charges                                                         
   LPAW   =        T    paw PP                                                                      
   EAUG   =  291.052                                                                                
   DEXC   =    -.041                                                                                
   RMAX   =    2.974    core radius for proj-oper                                                   
   RAUG   =    1.300    factor for augmentation sphere                                              
   RDEP   =    1.966    radius for radial grids                                                     
   QCUT   =   -4.203; QGAM   =    8.405    optimization parameters                                  
                                                                                                    
   Description                                                                                      
     l     E      TYP  RCUT    TYP  RCUT                                                            
     0   .000     23  1.900                                                                         
     0   .000     23  1.900                                                                         
     1   .000     23  1.900                                                                         
     1  1.000     23  1.900                                                                         
     2   .000      7  1.900                                                                         
  local pseudopotential read in
  partial core-charges read in
  atomic valenz-charges read in
  non local Contribution for L=           0  read in
    real space projection operators read in
  non local Contribution for L=           0  read in
    real space projection operators read in
  non local Contribution for L=           1  read in
    real space projection operators read in
  non local Contribution for L=           1  read in
    real space projection operators read in
    PAW grid and wavefunctions read in
 
   number of l-projection  operators is LMAX  =           4
   number of lm-projection operators is LMMAX =           8
 
 POTCAR:    PAW_PBE S 17Jan2003                   
   VRHFIN =S : s2p4                                                                                 
   LEXCH  = PE                                                                                      
   EATOM  =   276.8230 eV,   20.3459 Ry                                                             
                                                                                                    
   TITEL  = PAW_PBE S 17Jan2003                                                                     
   LULTRA =        F    use ultrasoft PP ?                                                          
   IUNSCR =        1    unscreen: 0-lin 1-nonlin 2-no                                               
   RPACOR =    1.500    partial core radius                                                         
   POMASS =   32.066; ZVAL   =    6.000    mass and valenz                                          
   RCORE  =    1.900    outmost cutoff radius                                                       
   RWIGS  =    2.200; RWIGS  =    1.164    wigner-seitz radius (au A)                               
   ENMAX  =  280.000; ENMIN  =  194.016 eV                                                          
   ICORE  =        2    local potential                                                             
   LCOR   =        T    correct aug charges                                                         
   LPAW   =        T    paw PP                                                                      
   EAUG   =  335.092                                                                                
   DEXC   =     .000                                                                                
   RMAX   =    2.867    core radius for proj-oper                                                   
   RAUG   =    1.300    factor for augmentation sphere                                              
   RDEP   =    1.954    radius for radial grids                                                     
   QCUT   =   -4.360; QGAM   =    8.721    optimization parameters                                  
                                                                                                    
   Description                                                                                      
     l     E      TYP  RCUT    TYP  RCUT                                                            
     0   .000     23  1.900                                                                         
     0   .000     23  1.900                                                                         
     1   .000     23  1.900                                                                         
     1   .000     23  1.900                                                                         
     2   .000     23  1.900                                                                         
  local pseudopotential read in
  partial core-charges read in
  atomic valenz-charges read in
  non local Contribution for L=           0  read in
    real space projection operators read in
  non local Contribution for L=           0  read in
    real space projection operators read in
  non local Contribution for L=           1  read in
    real space projection operators read in
  non local Contribution for L=           1  read in
    real space projection operators read in
    PAW grid and wavefunctions read in
 
   number of l-projection  operators is LMAX  =           4
   number of lm-projection operators is LMMAX =           8
 
 POTCAR:   PAW_PBE O 08Apr2002                    
   VRHFIN =O: s2p4                                                                                  
   LEXCH  = PE                                                                                      
   EATOM  =   432.3788 eV,   31.7789 Ry                                                             
                                                                                                    
   TITEL  = PAW_PBE O 08Apr2002                                                                     
   LULTRA =        F    use ultrasoft PP ?                                                          
   IUNSCR =        0    unscreen: 0-lin 1-nonlin 2-no                                               
   RPACOR =     .000    partial core radius                                                         
   POMASS =   16.000; ZVAL   =    6.000    mass and valenz                                          
   RCORE  =    1.520    outmost cutoff radius                                                       
   RWIGS  =    1.550; RWIGS  =     .820    wigner-seitz radius (au A)                               
   ENMAX  =  400.000; ENMIN  =  300.000 eV                                                          
   ICORE  =        2    local potential                                                             
   LCOR   =        T    correct aug charges                                                         
   LPAW   =        T    paw PP                                                                      
   EAUG   =  605.392                                                                                
   DEXC   =     .000                                                                                
   RMAX   =    2.264    core radius for proj-oper                                                   
   RAUG   =    1.300    factor for augmentation sphere                                              
   RDEP   =    1.550    radius for radial grids                                                     
   QCUT   =   -5.520; QGAM   =   11.041    optimization parameters                                  
                                                                                                    
   Description                                                                                      
     l     E      TYP  RCUT    TYP  RCUT                                                            
     0   .000     23  1.200                                                                         
     0  -.700     23  1.200                                                                         
     1   .000     23  1.520                                                                         
     1   .600     23  1.520                                                                         
     2   .000      7  1.500                                                                         
  local pseudopotential read in
  atomic valenz-charges read in
  non local Contribution for L=           0  read in
    real space projection operators read in
  non local Contribution for L=           0  read in
    real space projection operators read in
  non local Contribution for L=           1  read in
    real space projection operators read in
  non local Contribution for L=           1  read in
    real space projection operators read in
    PAW grid and wavefunctions read in
 
   number of l-projection  operators is LMAX  =           4
   number of lm-projection operators is LMMAX =           8
 
 Optimization of the real space projectors (new method)

 maximal supplied QI-value         = 19.84
 optimisation between [QCUT,QGAM] = [ 11.51, 23.22] = [ 37.09,150.92] Ry 
 Optimized for a Real-space Cutoff    1.18 Angstroem

   l    n(q)    QCUT    max X(q) W(low)/X(q) W(high)/X(q)  e(spline) 
   0      8    11.508    13.410    0.14E-04    0.92E-05    0.50E-08
   0      8    11.508   140.052    0.11E-03    0.16E-03    0.39E-07
   1      8    11.508     9.624    0.12E-04    0.31E-04    0.22E-07
   1      8    11.508    53.353    0.21E-03    0.91E-04    0.68E-07
 Optimization of the real space projectors (new method)

 maximal supplied QI-value         = 19.84
 optimisation between [QCUT,QGAM] = [ 11.51, 23.22] = [ 37.09,150.92] Ry 
 Optimized for a Real-space Cutoff    1.21 Angstroem

   l    n(q)    QCUT    max X(q) W(low)/X(q) W(high)/X(q)  e(spline) 
   0      8    11.508     5.487    0.18E-04    0.22E-05    0.47E-08
   0      8    11.508    85.627    0.96E-04    0.18E-03    0.54E-07
   1      8    11.508     3.530    0.17E-04    0.28E-04    0.21E-07
   1      8    11.508    42.714    0.18E-03    0.63E-04    0.92E-07
 Optimization of the real space projectors (new method)

 maximal supplied QI-value         = 24.76
 optimisation between [QCUT,QGAM] = [ 11.64, 23.27] = [ 37.91,151.63] Ry 
 Optimized for a Real-space Cutoff    1.08 Angstroem

   l    n(q)    QCUT    max X(q) W(low)/X(q) W(high)/X(q)  e(spline) 
   0      7    11.635     4.192    0.54E-04    0.80E-04    0.26E-07
   0      7    11.635     8.473    0.70E-04    0.40E-03    0.21E-06
   1      7    11.635     2.474    0.39E-04    0.14E-03    0.23E-07
   1      7    11.635     3.912    0.25E-03    0.37E-03    0.22E-06
 PAW_PBE Al 04Jan2001                   :
 energy of atom  1       EATOM=  -53.5387
 kinetic energy error for atom=    0.0002 (will be added to EATOM!!)
  PAW_PBE S 17Jan2003                   :
 energy of atom  2       EATOM= -276.8230
 kinetic energy error for atom=    0.0016 (will be added to EATOM!!)
 PAW_PBE O 08Apr2002                    :
 energy of atom  3       EATOM= -432.3788
 kinetic energy error for atom=    0.0208 (will be added to EATOM!!)
 
 
 POSCAR: Al4 S6 O24
  positions in direct lattice
  No initial velocities read in


 exchange-correlation table for PE
   RHO(1)=    0.500       N(1)  =     2000
   RHO(2)=  100.500       N(2)  =     4000
 


--------------------------------------------------------------------------------------------------------


 ion  position               nearest neighbor table
   1  0.143  0.143  0.143-  17 1.87  18 1.87  19 1.87  21 1.87  22 1.87  23 1.87
   2  0.857  0.857  0.857-  33 1.87  34 1.87  20 1.87  26 1.87  25 1.87  24 1.87
   3  0.352  0.352  0.352-  11 1.88  12 1.88  13 1.88  27 1.88  28 1.88  29 1.88
   4  0.648  0.648  0.648-  16 1.88  15 1.88  14 1.88  31 1.88  32 1.88  30 1.88
   5  0.539  0.964  0.248-  34 1.45  22 1.46  15 1.46  28 1.47
   6  0.248  0.539  0.964-  33 1.45  21 1.46  16 1.46  27 1.47
   7  0.964  0.248  0.539-  20 1.45  23 1.46  14 1.46  29 1.47
   8  0.752  0.461  0.036-  19 1.45  24 1.46  13 1.46  30 1.47
   9  0.461  0.036  0.752-  18 1.45  25 1.46  12 1.46  31 1.47
  10  0.036  0.752  0.461-  17 1.45  26 1.46  11 1.46  32 1.47
  11  0.184  0.546  0.476-  10 1.46   3 1.88
  12  0.476  0.184  0.546-   9 1.46   3 1.88
  13  0.546  0.476  0.184-   8 1.46   3 1.88
  14  0.816  0.454  0.524-   7 1.46   4 1.88
  15  0.524  0.816  0.454-   5 1.46   4 1.88
  16  0.454  0.524  0.816-   6 1.46   4 1.88
  17  0.112  0.895  0.264-  10 1.45   1 1.87
  18  0.264  0.112  0.895-   9 1.45   1 1.87
  19  0.895  0.264  0.112-   8 1.45   1 1.87
  20  0.888  0.105  0.736-   7 1.45   2 1.87
  21  0.205  0.379  0.993-   6 1.46   1 1.87
  22  0.379  0.993  0.205-   5 1.46   1 1.87
  23  0.993  0.205  0.379-   7 1.46   1 1.87
  24  0.795  0.621  0.007-   8 1.46   2 1.87
  25  0.621  0.007  0.795-   9 1.46   2 1.87
  26  0.007  0.795  0.621-  10 1.46   2 1.87
  27  0.229  0.519  0.156-   6 1.47   3 1.88
  28  0.519  0.156  0.229-   5 1.47   3 1.88
  29  0.156  0.229  0.519-   7 1.47   3 1.88
  30  0.771  0.481  0.844-   8 1.47   4 1.88
  31  0.481  0.844  0.771-   9 1.47   4 1.88
  32  0.844  0.771  0.481-  10 1.47   4 1.88
  33  0.105  0.736  0.888-   6 1.45   2 1.87
  34  0.736  0.888  0.105-   5 1.45   2 1.87
 
  LATTYP: Found a trigonal (rhomboedric) cell.
 ALAT       =     8.4937662187
 COS(alpha) =     0.5540777280
  
  Lattice vectors:
  
 A1 = (   7.4872380700,  -4.0106512900,   0.0026250700)
 A2 = (   7.4872394100,   4.0106516300,   0.0026220400)
 A3 = (   5.3365635100,  -0.0000001900,   6.6079686100)


Analysis of symmetry for initial positions (statically):
=====================================================================
 Subroutine PRICEL returns:
 Original cell was already a primitive cell.
 

 Routine SETGRP: Setting up the symmetry group for a 
 trigonal (rhombohedral) supercell.


 Subroutine GETGRP returns: Found  6 space group operations
 (whereof  6 operations were pure point group operations)
 out of a pool of 12 trial point group operations.


The static configuration has the point symmetry S_6 .


Analysis of symmetry for dynamics (positions and initial velocities):
=====================================================================
 Subroutine PRICEL returns:
 Original cell was already a primitive cell.
 

 Routine SETGRP: Setting up the symmetry group for a 
 trigonal (rhombohedral) supercell.


 Subroutine GETGRP returns: Found  6 space group operations
 (whereof  6 operations were pure point group operations)
 out of a pool of 12 trial point group operations.


The dynamic configuration has the point symmetry S_6 .


Analysis of structural, dynamic, and magnetic symmetry:
=====================================================================
 Subroutine PRICEL returns:
 Original cell was already a primitive cell.
 

 Routine SETGRP: Setting up the symmetry group for a 
 trigonal (rhombohedral) supercell.


 Subroutine GETGRP returns: Found  6 space group operations
 (whereof  6 operations were pure point group operations)
 out of a pool of 12 trial point group operations.


The overall configuration has the point symmetry S_6 .


 Subroutine INISYM returns: Found  6 space group operations
 (whereof  6 operations are pure point group operations),
 and found     1 'primitive' translations


----------------------------------------------------------------------------------------

                                     Primitive cell                                     

  volume of cell :     396.7452

  direct lattice vectors                    reciprocal lattice vectors
     7.487238070 -4.010651290  0.002625070     0.066799199 -0.124668057 -0.053946714
     7.487239410  4.010651630  0.002622040     0.066799194  0.124667994 -0.053946702
     5.336563510 -0.000000190  6.607968610    -0.000053042  0.000000057  0.151375275

  length of vectors
     8.493766219  8.493767560  8.493771792     0.151375380  0.151375321  0.151375284

  position of ions in fractional coordinates (direct lattice)
     0.143383780  0.143383050  0.143383150
     0.856616860  0.856615890  0.856617000
     0.351911610  0.351912070  0.351911810
     0.648087380  0.648088770  0.648088230
     0.539394710  0.963749010  0.248443810
     0.248444380  0.539394550  0.963749060
     0.963748970  0.248444050  0.539393970
     0.751556160  0.460606120  0.036250520
     0.460605000  0.036251260  0.751555680
     0.036251060  0.751555890  0.460605390
     0.184174390  0.546065580  0.475960940
     0.475961250  0.184174360  0.546065160
     0.546067700  0.475959090  0.184174010
     0.815825630  0.453932670  0.524040630
     0.524038970  0.815825980  0.453933840
     0.453935160  0.524038890  0.815825330
     0.111886330  0.895382230  0.263823050
     0.263822870  0.111886710  0.895381900
     0.895381940  0.263824250  0.111884510
     0.888115190  0.104618630  0.736174830
     0.204862440  0.379209070  0.992965070
     0.379209850  0.992964230  0.204862800
     0.992962450  0.204865700  0.379211710
     0.795134880  0.620787930  0.007036970
     0.620790450  0.007035670  0.795136800
     0.007035750  0.795137570  0.620789990
     0.228534180  0.519497900  0.156463950
     0.519498070  0.156463440  0.228533280
     0.156461450  0.228534100  0.519498630
     0.771466620  0.480500660  0.843538360
     0.480502010  0.843536310  0.771465910
     0.843536370  0.771466070  0.480502250
     0.104617230  0.736177090  0.888113720
     0.736176910  0.888114230  0.104617750

  ion indices of the primitive-cell ions
   primitive index   ion index
                 1           1
                 2           2
                 3           3
                 4           4
                 5           5
                 6           6
                 7           7
                 8           8
                 9           9
                10          10
                11          11
                12          12
                13          13
                14          14
                15          15
                16          16
                17          17
                18          18
                19          19
                20          20
                21          21
                22          22
                23          23
                24          24
                25          25
                26          26
                27          27
                28          28
                29          29
                30          30
                31          31
                32          32
                33          33
                34          34

----------------------------------------------------------------------------------------

 
 
 KPOINTS: pymatgen with grid density = 1360 / numb

Automatic generation of k-mesh.
 Grid dimensions read from file:
 generate k-points for:    3    3    3

 Generating k-lattice:

  Cartesian coordinates                     Fractional coordinates (reciprocal lattice)
     0.022266400 -0.041556019 -0.017982238     0.333333333 -0.000000000 -0.000000000
     0.022266398  0.041555998 -0.017982234     0.000000000  0.333333333 -0.000000000
    -0.000017681  0.000000019  0.050458425    -0.000000000 -0.000000000  0.333333333

  Length of vectors
     0.050458460  0.050458440  0.050458428

  Shift w.r.t. Gamma in fractional coordinates (k-lattice)
     0.000000000  0.000000000  0.000000000

 TETIRR: Found     14 inequivalent tetrahedra from      162
 
 Subroutine IBZKPT returns following result:
 ===========================================
 
 Found      6 irreducible k-points:
 
 Following reciprocal coordinates:
            Coordinates               Weight
  0.000000  0.000000  0.000000      1.000000
  0.333333  0.000000  0.000000      6.000000
  0.333333  0.333333  0.000000      6.000000
 -0.333333  0.333333  0.000000      6.000000
  0.333333  0.333333  0.333333      2.000000
 -0.333333  0.333333  0.333333      6.000000
 
 Following cartesian coordinates:
            Coordinates               Weight
  0.000000 -0.000000  0.000000      1.000000
  0.022266 -0.041556 -0.017982      6.000000
  0.044533 -0.000000 -0.035964      6.000000
 -0.000000  0.083112  0.000000      6.000000
  0.044515 -0.000000  0.014494      2.000000
 -0.000018  0.083112  0.050458      6.000000
 


--------------------------------------------------------------------------------------------------------




 Dimension of arrays:
   k-points           NKPTS =      6   k-points in BZ     NKDIM =      6   number of bands    NBANDS=    128
   number of dos      NEDOS =    301   number of ions     NIONS =     34
   non local maximal  LDIM  =      4   non local SUM 2l+1 LMDIM =      8
   total plane-waves  NPLWV = 262144
   max r-space proj   IRMAX =   4962   max aug-charges    IRDMAX=  25912
   dimension x,y,z NGX =    64 NGY =   64 NGZ =   64
   dimension x,y,z NGXF=   128 NGYF=  128 NGZF=  128
   support grid    NGXF=   128 NGYF=  128 NGZF=  128
   ions per type =               4   6  24
   NGX,Y,Z   is equivalent  to a cutoff of  12.53, 12.53, 12.53 a.u.
   NGXF,Y,Z  is equivalent  to a cutoff of  25.05, 25.05, 25.05 a.u.

 SYSTEM =  unknown system                          
 POSCAR =  Al4 S6 O24                              

 Startparameter for this run:
   NWRITE =      2    write-flag & timer
   PREC   = accura    normal or accurate (medium, high low for compatibility)
   ISTART =      0    job   : 0-new  1-cont  2-samecut
   ICHARG =      2    charge: 1-file 2-atom 10-const
   ISPIN  =      2    spin polarized calculation?
   LNONCOLLINEAR =      F non collinear calculations
   LSORBIT =      F    spin-orbit coupling
   INIWAV =      1    electr: 0-lowe 1-rand  2-diag
   LASPH  =      T    aspherical Exc in radial PAW
 Electronic Relaxation 1
   ENCUT  =  520.0 eV  38.22 Ry    6.18 a.u.  15.79 15.79 15.79*2*pi/ulx,y,z
   ENINI  =  520.0     initial cutoff
   ENAUG  =  605.4 eV  augmentation charge cutoff
   NELM   =    100;   NELMIN=  2; NELMDL= -5     # of ELM steps 
   EDIFF  = 0.2E-02   stopping-criterion for ELM
   LREAL  =      T    real-space projection
   NLSPLINE    = F    spline interpolate recip. space projectors
   LCOMPAT=      F    compatible to vasp.4.4
   GGA_COMPAT  = T    GGA compatible to vasp.4.4-vasp.4.6
   LMAXPAW     = -100 max onsite density
   LMAXMIX     =    2 max onsite mixed and CHGCAR
   VOSKOWN=      0    Vosko Wilk Nusair interpolation
   ROPT   =   -0.00025  -0.00025  -0.00025
 Ionic relaxation
   EDIFFG = 0.2E-01   stopping-criterion for IOM
   NSW    =     99    number of steps for IOM
   NBLOCK =      1;   KBLOCK =     99    inner block; outer block 
   IBRION =      2    ionic relax: 0-MD 1-quasi-New 2-CG
   NFREE  =      1    steps in history (QN), initial steepest desc. (CG)
   ISIF   =      3    stress and relaxation
   IWAVPR =     11    prediction:  0-non 1-charg 2-wave 3-comb
   ISYM   =      2    0-nonsym 1-usesym 2-fastsym
   LCORR  =      T    Harris-Foulkes like correction to forces

   POTIM  = 0.5000    time-step for ionic-motion
   TEIN   =    0.0    initial temperature
   TEBEG  =    0.0;   TEEND  =   0.0 temperature during run
   SMASS  =  -3.00    Nose mass-parameter (am)
   estimated Nose-frequenzy (Omega)   =  0.10E-29 period in steps = 0.13E+47 mass=  -0.165E-26a.u.
   SCALEE = 1.0000    scale energy and forces
   NPACO  =    256;   APACO  = 10.0  distance and # of slots for P.C.
   PSTRESS=    0.0 pullay stress

  Mass of Ions in am
   POMASS =  26.98 32.07 16.00
  Ionic Valenz
   ZVAL   =   3.00  6.00  6.00
  Atomic Wigner-Seitz radii
   RWIGS  =  -1.00 -1.00 -1.00
  virtual crystal weights 
   VCA    =   1.00  1.00  1.00
   NELECT =     192.0000    total number of electrons
   NUPDOWN=      -1.0000    fix difference up-down

 DOS related values:
   EMIN   =  10.00;   EMAX   =-10.00  energy-range for DOS
   EFERMI =   0.00;   METHOD = LEGACY      
   ISMEAR =    -5;   SIGMA  =   0.05  broadening in eV -4-tet -1-fermi 0-gaus

 Electronic relaxation 2 (details)
   IALGO  =     68    algorithm
   LDIAG  =      T    sub-space diagonalisation (order eigenvalues)
   LSUBROT=      F    optimize rotation matrix (better conditioning)
   TURBO    =      0    0=normal 1=particle mesh
   IRESTART =      0    0=no restart 2=restart with 2 vectors
   NREBOOT  =      0    no. of reboots
   NMIN     =      0    reboot dimension
   EREF     =   0.00    reference energy to select bands
   IMIX   =      4    mixing-type and parameters
     AMIX     =   0.40;   BMIX     =  1.00
     AMIX_MAG =   1.60;   BMIX_MAG =  1.00
     AMIN     =   0.10
     WC   =   100.;   INIMIX=   1;  MIXPRE=   1;  MAXMIX= -45

 Intra band minimization:
   WEIMIN = 0.0010     energy-eigenvalue tresh-hold
   EBREAK =  0.33E-05  absolut break condition
   DEPER  =   0.30     relativ break condition  

   TIME   =   0.40     timestep for ELM

  volume/ion in A,a.u.               =      11.67        78.75
  Fermi-wavevector in a.u.,A,eV,Ry     =   1.285301  2.428866 22.476790  1.651997
  Thomas-Fermi vector in A             =   2.417443
 
 Write flags
   LWAVE        =      F    write WAVECAR
   LDOWNSAMPLE  =      F    k-point downsampling of WAVECAR
   LCHARG       =      T    write CHGCAR
   LVTOT        =      F    write LOCPOT, total local potential
   LVHAR        =      F    write LOCPOT, Hartree potential only
   WRT_POTENTIAL= false  ! write potential to hdf5 file
   LELF         =      F    write electronic localiz. function (ELF)
   LORBIT       =     11    0 simple, 1 ext, 2 COOP (PROOUT), +10 PAW based schemes


 Dipole corrections
   LMONO      =      F    monopole corrections only (constant potential shift)
   LDIPOL     =      F    correct potential (dipole corrections)
   IDIPOL     =      0    1-x, 2-y, 3-z, 4-all directions 
   EPSILON    =  1.0000000 bulk dielectric constant
   LVACPOTAV  =      F  vacuum potentials using an averaging scheme for the charge density
   VACPOTFLAT =  0.1000000 required flatness to determine vacuum potential
 Exchange correlation treatment:
   GGA     = PE    functional components
   XC_C    = 1    coefficients multiplying the functional components
   LIBXC   =     F    Libxc                    
   VOSKOWN =     0    Vosko Wilk Nusair interpolation
   LHFCALC =     F    Hartree Fock is set to
   LHFONE  =     F    Hartree Fock one center treatment
   AEXX    =    0.0000 exact exchange contribution

 Parameters of functionals:
   PE:
     No parameter
 
 Van der Waals corrections
   IVDW    =     0    specifies the selected vdW correction

 Linear response parameters
   LEPSILON=     F    determine dielectric tensor
   LRPA    =     F    only Hartree local field effects (RPA)
   LNABLA  =     F    use nabla operator in PAW spheres
   LVEL    =     F    velocity operator in full k-point grid
   CSHIFT  =0.1000    complex shift for real part using Kramers Kronig
   OMEGAMAX=  -1.0    maximum frequency
   DEG_THRESHOLD= 0.2000000E-02 threshold for treating states as degnerate
   RTIME   =   -0.100 relaxation time in fs
  (WPLASMAI=    0.000 imaginary part of plasma frequency in eV, 0.658/RTIME)
   DFIELD  = 0.0000000 0.0000000 0.0000000 field for delta impulse in time
 
  Optional k-point grid parameters
   LKPOINTS_OPT  =     F    use optional k-point grid
   KPOINTS_OPT_MODE=     1    mode for optional k-point grid
 
 Orbital magnetization related:
   ORBITALMAG=     F  switch on orbital magnetization
   LCHIMAG   =     F  perturbation theory with respect to B field
   DQ        =  0.001000  dq finite difference perturbation B field
   LLRAUG    =     F  two centre corrections for induced B field
   LBONE     =     F  B-component reconstruction in AE one-centre
   LVGVCALC  =     T  calculate vGv susceptibility
   LVGVAPPL  =     F  apply vGv susceptibility instead of pGv for G=0

 Random number generation:
   RANDOM_GENERATOR = DEFAULT
   PCG_SEED         = not used


--------------------------------------------------------------------------------------------------------


 conjugate gradient relaxation of ions
 charge density and potential will be updated during run
 spin polarized calculation
 RMM-DIIS sequential band-by-band and
  variant of blocked Davidson during initial phase
 perform sub-space diagonalisation
    before iterative eigenvector-optimisation
 modified Broyden-mixing scheme, WC =      100.0
 initial mixing is a Kerker type mixing with AMIX =  0.4000 and BMIX =      1.0000
 Hartree-type preconditioning will be used
 using additional bands           32
 real space projection scheme for non local part
 use partial core corrections
 calculate Harris-corrections to forces 
   (improved forces if not selfconsistent)
 use gradient corrections 
 use of overlap-Matrix (Vanderbilt PP)
 Fermi weights with tetrahedron method with Bloechl corrections


--------------------------------------------------------------------------------------------------------


  energy-cutoff  :      520.00
  volume of cell :      396.75
      direct lattice vectors                 reciprocal lattice vectors
     7.487238070 -4.010651290  0.002625070     0.066799199 -0.124668057 -0.053946714
     7.487239410  4.010651630  0.002622040     0.066799194  0.124667994 -0.053946702
     5.336563510 -0.000000190  6.607968610    -0.000053042  0.000000057  0.151375275

  length of vectors
     8.493766219  8.493767560  8.493771792     0.151375380  0.151375321  0.151375284


 
 k-points in units of 2pi/SCALE and weight: pymatgen with grid density = 1360 / numb
   0.00000000 -0.00000000  0.00000000       0.037
   0.02226640 -0.04155602 -0.01798224       0.222
   0.04453280 -0.00000002 -0.03596447       0.222
  -0.00000000  0.08311202  0.00000000       0.222
   0.04451512 -0.00000000  0.01449395       0.074
  -0.00001768  0.08311204  0.05045843       0.222
 
 k-points in reciprocal lattice and weights: pymatgen with grid density = 1360 / numb
   0.00000000  0.00000000  0.00000000       0.037
   0.33333333  0.00000000  0.00000000       0.222
   0.33333333  0.33333333  0.00000000       0.222
  -0.33333333  0.33333333  0.00000000       0.222
   0.33333333  0.33333333  0.33333333       0.074
  -0.33333333  0.33333333  0.33333333       0.222
 
 position of ions in fractional coordinates (direct lattice) 
   0.14338378  0.14338305  0.14338315
   0.85661686  0.85661589  0.85661700
   0.35191161  0.35191207  0.35191181
   0.64808738  0.64808877  0.64808823
   0.53939471  0.96374901  0.24844381
   0.24844438  0.53939455  0.96374906
   0.96374897  0.24844405  0.53939397
   0.75155616  0.46060612  0.03625052
   0.46060500  0.03625126  0.75155568
   0.03625106  0.75155589  0.46060539
   0.18417439  0.54606558  0.47596094
   0.47596125  0.18417436  0.54606516
   0.54606770  0.47595909  0.18417401
   0.81582563  0.45393267  0.52404063
   0.52403897  0.81582598  0.45393384
   0.45393516  0.52403889  0.81582533
   0.11188633  0.89538223  0.26382305
   0.26382287  0.11188671  0.89538190
   0.89538194  0.26382425  0.11188451
   0.88811519  0.10461863  0.73617483
   0.20486244  0.37920907  0.99296507
   0.37920985  0.99296423  0.20486280
   0.99296245  0.20486570  0.37921171
   0.79513488  0.62078793  0.00703697
   0.62079045  0.00703567  0.79513680
   0.00703575  0.79513757  0.62078999
   0.22853418  0.51949790  0.15646395
   0.51949807  0.15646344  0.22853328
   0.15646145  0.22853410  0.51949863
   0.77146662  0.48050066  0.84353836
   0.48050201  0.84353631  0.77146591
   0.84353637  0.77146607  0.48050225
   0.10461723  0.73617709  0.88811372
   0.73617691  0.88811423  0.10461775
 
 position of ions in cartesian coordinates  (Angst):
   2.91226501 -0.00000291  0.94822370
  17.39877364 -0.00000376  5.66499301
   7.14769565  0.00000190  2.32726871
  13.16334428  0.00000567  4.28594727
  12.58023235  1.70193740  1.64565184
  11.04184642  1.16689967  6.37049003
  11.95448824 -2.86883862  3.56747976
   9.26920139 -1.16689900  0.24272291
   7.73080577 -1.70193501  4.96756051
   8.35654911  2.86883841  3.04573173
   8.00747702  1.45141946  3.14705023
   7.85670412 -1.17025551  3.61011378
   8.63501483 -0.28118106  1.21969753
  12.30355940 -1.45142641  3.46617586
  12.45433572  1.17025614  3.00309533
  11.67602893  0.28116164  5.39351383
   8.94956917  3.14232910  1.74597587
   7.59128960 -0.60936309  5.91764141
   9.27633186 -2.53295760  0.74237153
  11.36147833 -3.14233159  4.86722585
   9.67210411  0.69924348  6.56301409
  11.36705868  2.46155509  1.35732600
  10.99211217 -3.16078125  2.50896284
  10.63890524 -0.69924461  0.05021509
   8.94398167 -2.46155655  5.25588708
   9.31894889  3.16080173  4.10426412
   6.43567477  1.16695417  1.03587093
   6.28066732 -1.45600530  1.51191471
   5.65489108  0.28905825  3.43384059
  13.87537376 -1.16696300  5.57736005
  14.03036807  1.45600412  5.10129565
  14.65613956 -0.28904867  3.17938094
  11.03470350  2.53296645  5.87083250
  12.71975492  0.60936789  0.69557200
 


--------------------------------------------------------------------------------------------------------


 k-point     1 :   0.0000 0.0000 0.0000  plane waves:   10671
 k-point     2 :   0.3333 0.0000 0.0000  plane waves:   10676
 k-point     3 :   0.3333 0.3333 0.0000  plane waves:   10687
 k-point     4 :  -0.3333 0.3333 0.0000  plane waves:   10675
 k-point     5 :   0.3333 0.3333 0.3333  plane waves:   10649
 k-point     6 :  -0.3333 0.3333 0.3333  plane waves:   10694

 maximum and minimum number of plane-waves per node :     10694    10649

 maximum number of plane-waves:     10694
 maximum index in each direction: 
   IXMAX=   16   IYMAX=   15   IZMAX=   15
   IXMIN=  -16   IYMIN=  -16   IZMIN=  -16


 serial   3D FFT for wavefunctions
 parallel 3D FFT for charge:
    minimum data exchange during FFTs selected (reduces bandwidth)


 total amount of memory used by VASP MPI-rank0    97135. kBytes
=======================================================================

   base      :      30000. kBytes
   nonlr-proj:      11746. kBytes
   fftplans  :       5538. kBytes
   grid      :      32784. kBytes
   one-center:        208. kBytes
   wavefun   :      16859. kBytes
 
     INWAV:  cpu time      0.0000: real time      0.0002
 Broyden mixing: mesh for mixing (old mesh)
   NGX = 31   NGY = 31   NGZ = 31
  (NGX  =128   NGY  =128   NGZ  =128)
  gives a total of  29791 points

 initial charge density was supplied:
 charge density of overlapping atoms calculated
 number of electron     192.0000000 magnetization       0.0000000
 keeping initial charge density in first step


--------------------------------------------------------------------------------------------------------


 Maximum index for non-local projection operator         4772
 Maximum index for augmentation-charges         1577 (set IRDMAX)


--------------------------------------------------------------------------------------------------------


 First call to EWALD:  gamma=   0.241
 Maximum number of real-space cells 3x 3x 3
 Maximum number of reciprocal cells 3x 3x 3

    FEWALD:  cpu time      0.0011: real time      0.0011


--------------------------------------- Ionic step        1  -------------------------------------------




--------------------------------------- Iteration      1(   1)  ---------------------------------------


    POTLOK:  cpu time      0.1253: real time      0.1260
    SETDIJ:  cpu time      0.3089: real time      0.3100
     EDDAV:  cpu time      4.5947: real time      4.6182
 BZINTS: Fermi energy:   17.391897;  192.000000 electrons
         Band energy:-0.690885E+02;  BLOECHL correction:   -0.120439
       DOS:  cpu time      0.0013: real time      0.0014
    --------------------------------------------
      LOOP:  cpu time      5.0302: real time      5.0557

 eigenvalue-minimisations  :  3088
 total energy-change (2. order) : 0.1301360E+04  (-0.1047493E+05)
 number of electron     192.0000000 magnetization       0.0000000
 augmentation part      192.0000000 magnetization       0.0000000

 Free energy of the ion-electron system (eV)
  ---------------------------------------------------
  alpha Z        PSCENC =       339.82024828
  Ewald energy   TEWEN  =     -7583.30728767
  -Hartree energ DENC   =     -4395.77731631
  -exchange      EXHF   =         0.00000000
  -V(xc)+E(xc)   XCENC  =       655.47206493
  PAW double counting   =      6641.58454592    -6539.01749753
  entropy T*S    EENTRO =         0.00000000
  eigenvalues    EBANDS =       -69.08846267
  atomic energy  EATOM  =     12251.67400090
  Solvation  Ediel_sol  =         0.00000000
  ---------------------------------------------------
  free energy    TOTEN  =      1301.36029587 eV

  energy without entropy =     1301.36029587  energy(sigma->0) =     1301.36029587


--------------------------------------------------------------------------------------------------------




--------------------------------------- Iteration      1(   2)  ---------------------------------------


     EDDAV:  cpu time      5.3340: real time      5.3601
 BZINTS: Fermi energy:    0.599377;  192.000000 electrons
         Band energy:-0.154046E+04;  BLOECHL correction:    0.000000
       DOS:  cpu time      0.0008: real time      0.0008
    --------------------------------------------
      LOOP:  cpu time      5.3347: real time      5.3609

 eigenvalue-minimisations  :  3808
 total energy-change (2. order) :-0.1471372E+04  (-0.1429252E+04)
 number of electron     192.0000000 magnetization       0.0000000
 augmentation part      192.0000000 magnetization       0.0000000

 Free energy of the ion-electron system (eV)
  ---------------------------------------------------
  alpha Z        PSCENC =       339.82024828
  Ewald energy   TEWEN  =     -7583.30728767
  -Hartree energ DENC   =     -4395.77731631
  -exchange      EXHF   =         0.00000000
  -V(xc)+E(xc)   XCENC  =       655.47206493
  PAW double counting   =      6641.58454592    -6539.01749753
  entropy T*S    EENTRO =         0.00000000
  eigenvalues    EBANDS =     -1540.46044086
  atomic energy  EATOM  =     12251.67400090
  Solvation  Ediel_sol  =         0.00000000
  ---------------------------------------------------
  free energy    TOTEN  =      -170.01168232 eV

  energy without entropy =     -170.01168232  energy(sigma->0) =     -170.01168232


--------------------------------------------------------------------------------------------------------




--------------------------------------- Iteration      1(   3)  ---------------------------------------


     EDDAV:  cpu time      5.3043: real time      5.3298
 BZINTS: Fermi energy:   -1.065380;  192.000000 electrons
         Band energy:-0.162410E+04;  BLOECHL correction:    0.000000
       DOS:  cpu time      0.0008: real time      0.0008
    --------------------------------------------
      LOOP:  cpu time      5.3051: real time      5.3306

 eigenvalue-minimisations  :  3792
 total energy-change (2. order) :-0.8363982E+02  (-0.8309208E+02)
 number of electron     192.0000000 magnetization       0.0000000
 augmentation part      192.0000000 magnetization       0.0000000

 Free energy of the ion-electron system (eV)
  ---------------------------------------------------
  alpha Z        PSCENC =       339.82024828
  Ewald energy   TEWEN  =     -7583.30728767
  -Hartree energ DENC   =     -4395.77731631
  -exchange      EXHF   =         0.00000000
  -V(xc)+E(xc)   XCENC  =       655.47206493
  PAW double counting   =      6641.58454592    -6539.01749753
  entropy T*S    EENTRO =         0.00000000
  eigenvalues    EBANDS =     -1624.10026333
  atomic energy  EATOM  =     12251.67400090
  Solvation  Ediel_sol  =         0.00000000
  ---------------------------------------------------
  free energy    TOTEN  =      -253.65150479 eV

  energy without entropy =     -253.65150479  energy(sigma->0) =     -253.65150479


--------------------------------------------------------------------------------------------------------




--------------------------------------- Iteration      1(   4)  ---------------------------------------


     EDDAV:  cpu time      5.3546: real time      5.3803
 BZINTS: Fermi energy:   -1.100080;  192.000000 electrons
         Band energy:-0.162532E+04;  BLOECHL correction:    0.000000
       DOS:  cpu time      0.0008: real time      0.0008
    --------------------------------------------
      LOOP:  cpu time      5.3554: real time      5.3811

 eigenvalue-minimisations  :  3840
 total energy-change (2. order) :-0.1221685E+01  (-0.1215308E+01)
 number of electron     192.0000000 magnetization       0.0000000
 augmentation part      192.0000000 magnetization       0.0000000

 Free energy of the ion-electron system (eV)
  ---------------------------------------------------
  alpha Z        PSCENC =       339.82024828
  Ewald energy   TEWEN  =     -7583.30728767
  -Hartree energ DENC   =     -4395.77731631
  -exchange      EXHF   =         0.00000000
  -V(xc)+E(xc)   XCENC  =       655.47206493
  PAW double counting   =      6641.58454592    -6539.01749753
  entropy T*S    EENTRO =         0.00000000
  eigenvalues    EBANDS =     -1625.32194799
  atomic energy  EATOM  =     12251.67400090
  Solvation  Ediel_sol  =         0.00000000
  ---------------------------------------------------
  free energy    TOTEN  =      -254.87318945 eV

  energy without entropy =     -254.87318945  energy(sigma->0) =     -254.87318945


--------------------------------------------------------------------------------------------------------




--------------------------------------- Iteration      1(   5)  ---------------------------------------


     EDDAV:  cpu time      5.1345: real time      5.1598
 BZINTS: Fermi energy:   -1.063270;  192.000000 electrons
         Band energy:-0.162535E+04;  BLOECHL correction:    0.000000
       DOS:  cpu time      0.0008: real time      0.0008
    CHARGE:  cpu time      0.3409: real time      0.3424
    MIXING:  cpu time      0.0065: real time      0.0067
    --------------------------------------------
      LOOP:  cpu time      5.4827: real time      5.5097

 eigenvalue-minimisations  :  3632
 total energy-change (2. order) :-0.2619547E-01  (-0.2616988E-01)
 number of electron     192.0000010 magnetization      -0.0000000
 augmentation part       15.4491498 magnetization       0.0000230

 Broyden mixing:
  rms(total) = 0.36133E+01    rms(broyden)= 0.36112E+01
  rms(prec ) = 0.55582E+01
  weight for this iteration     100.00

 Free energy of the ion-electron system (eV)
  ---------------------------------------------------
  alpha Z        PSCENC =       339.82024828
  Ewald energy   TEWEN  =     -7583.30728767
  -Hartree energ DENC   =     -4395.77731631
  -exchange      EXHF   =         0.00000000
  -V(xc)+E(xc)   XCENC  =       655.47206493
  PAW double counting   =      6641.58454592    -6539.01749753
  entropy T*S    EENTRO =         0.00000000
  eigenvalues    EBANDS =     -1625.34814346
  atomic energy  EATOM  =     12251.67400090
  Solvation  Ediel_sol  =         0.00000000
  ---------------------------------------------------
  free energy    TOTEN  =      -254.89938492 eV

  energy without entropy =     -254.89938492  energy(sigma->0) =     -254.89938492


--------------------------------------------------------------------------------------------------------




--------------------------------------- Iteration      1(   6)  ---------------------------------------


    POTLOK:  cpu time      0.1185: real time      0.1191
    SETDIJ:  cpu time      0.3523: real time      0.3531
    EDDIAG:  cpu time      0.7854: real time      0.7896
  RMM-DIIS:  cpu time      3.7498: real time      3.7655
    ORTHCH:  cpu time      0.0486: real time      0.0488
 BZINTS: Fermi energy:    1.247725;  192.000000 electrons
         Band energy:-0.131087E+04;  BLOECHL correction:    0.000000
       DOS:  cpu time      0.0011: real time      0.0011
    CHARGE:  cpu time      0.3402: real time      0.3420
    MIXING:  cpu time      0.0062: real time      0.0062
    --------------------------------------------
      LOOP:  cpu time      5.4021: real time      5.4254

 eigenvalue-minimisations  :  3072
 total energy-change (2. order) : 0.3468921E+02  (-0.1085659E+02)
 number of electron     192.0000009 magnetization      -0.0000000
 augmentation part       12.3226882 magnetization      -0.0002204

 Broyden mixing:
  rms(total) = 0.95804E+00    rms(broyden)= 0.95696E+00
  rms(prec ) = 0.12681E+01
  weight for this iteration     100.00

 eigenvalues of (default mixing * dielectric matrix)
  average eigenvalue GAMMA=   1.0704
  1.0704

 Free energy of the ion-electron system (eV)
  ---------------------------------------------------
  alpha Z        PSCENC =       339.82024828
  Ewald energy   TEWEN  =     -7583.30728767
  -Hartree energ DENC   =     -4691.06834632
  -exchange      EXHF   =         0.00000000
  -V(xc)+E(xc)   XCENC  =       678.25731495
  PAW double counting   =      7734.05816306    -7638.77552611
  entropy T*S    EENTRO =         0.00000000
  eigenvalues    EBANDS =     -1310.86874625
  atomic energy  EATOM  =     12251.67400090
  Solvation  Ediel_sol  =         0.00000000
  ---------------------------------------------------
  free energy    TOTEN  =      -220.21017914 eV

  energy without entropy =     -220.21017914  energy(sigma->0) =     -220.21017914


--------------------------------------------------------------------------------------------------------




--------------------------------------- Iteration      1(   7)  ---------------------------------------


    POTLOK:  cpu time      0.1150: real time      0.1156
    SETDIJ:  cpu time      0.3524: real time      0.3535
    EDDIAG:  cpu time      0.7852: real time      0.7896
  RMM-DIIS:  cpu time      3.7375: real time      3.7534
    ORTHCH:  cpu time      0.0488: real time      0.0491
 BZINTS: Fermi energy:    1.521060;  192.000000 electrons
         Band energy:-0.126471E+04;  BLOECHL correction:    0.000000
       DOS:  cpu time      0.0008: real time      0.0008
    CHARGE:  cpu time      0.3360: real time      0.3373
    MIXING:  cpu time      0.0061: real time      0.0062
    --------------------------------------------
      LOOP:  cpu time      5.3818: real time      5.4054

 eigenvalue-minimisations  :  3072
 total energy-change (2. order) :-0.9470904E+00  (-0.1315627E+01)
 number of electron     192.0000009 magnetization       0.0000000
 augmentation part       11.6873165 magnetization      -0.0001296

 Broyden mixing:
  rms(total) = 0.64351E+00    rms(broyden)= 0.64325E+00
  rms(prec ) = 0.78151E+00
  weight for this iteration     100.00

 eigenvalues of (default mixing * dielectric matrix)
  average eigenvalue GAMMA=   1.7747
  1.2249  2.3244

 Free energy of the ion-electron system (eV)
  ---------------------------------------------------
  alpha Z        PSCENC =       339.82024828
  Ewald energy   TEWEN  =     -7583.30728767
  -Hartree energ DENC   =     -4741.91661595
  -exchange      EXHF   =         0.00000000
  -V(xc)+E(xc)   XCENC  =       682.40033096
  PAW double counting   =      8124.44329131    -8029.55691686
  entropy T*S    EENTRO =         0.00000000
  eigenvalues    EBANDS =     -1264.71432050
  atomic energy  EATOM  =     12251.67400090
  Solvation  Ediel_sol  =         0.00000000
  ---------------------------------------------------
  free energy    TOTEN  =      -221.15726952 eV

  energy without entropy =     -221.15726952  energy(sigma->0) =     -221.15726952


--------------------------------------------------------------------------------------------------------




--------------------------------------- Iteration      1(   8)  ---------------------------------------


    POTLOK:  cpu time      0.1145: real time      0.1150
    SETDIJ:  cpu time      0.3521: real time      0.3532
    EDDIAG:  cpu time      0.7852: real time      0.7894
  RMM-DIIS:  cpu time      3.7212: real time      3.7363
    ORTHCH:  cpu time      0.0491: real time      0.0493
 BZINTS: Fermi energy:    1.367742;  192.000000 electrons
         Band energy:-0.126850E+04;  BLOECHL correction:    0.000000
       DOS:  cpu time      0.0008: real time      0.0008
    CHARGE:  cpu time      0.3394: real time      0.3416
    MIXING:  cpu time      0.0062: real time      0.0062
    --------------------------------------------
      LOOP:  cpu time      5.3687: real time      5.3918

 eigenvalue-minimisations  :  3072
 total energy-change (2. order) :-0.1477092E-01  (-0.1199013E+00)
 number of electron     192.0000009 magnetization       0.0000000
 augmentation part       11.9317629 magnetization      -0.0001078

 Broyden mixing:
  rms(total) = 0.14862E+00    rms(broyden)= 0.14859E+00
  rms(prec ) = 0.24159E+00
  weight for this iteration     100.00

 eigenvalues of (default mixing * dielectric matrix)
  average eigenvalue GAMMA=   1.5461
  2.6070  1.0156  1.0156

 Free energy of the ion-electron system (eV)
  ---------------------------------------------------
  alpha Z        PSCENC =       339.82024828
  Ewald energy   TEWEN  =     -7583.30728767
  -Hartree energ DENC   =     -4739.13224411
  -exchange      EXHF   =         0.00000000
  -V(xc)+E(xc)   XCENC  =       682.35888251
  PAW double counting   =      8414.95267208    -8319.03817310
  entropy T*S    EENTRO =         0.00000000
  eigenvalues    EBANDS =     -1268.50013935
  atomic energy  EATOM  =     12251.67400090
  Solvation  Ediel_sol  =         0.00000000
  ---------------------------------------------------
  free energy    TOTEN  =      -221.17204044 eV

  energy without entropy =     -221.17204044  energy(sigma->0) =     -221.17204044


--------------------------------------------------------------------------------------------------------




--------------------------------------- Iteration      1(   9)  ---------------------------------------


    POTLOK:  cpu time      0.1151: real time      0.1156
    SETDIJ:  cpu time      0.3524: real time      0.3532
    EDDIAG:  cpu time      0.7864: real time      0.7911
  RMM-DIIS:  cpu time      3.7299: real time      3.7453
    ORTHCH:  cpu time      0.0487: real time      0.0489
 BZINTS: Fermi energy:    1.496303;  192.000000 electrons
         Band energy:-0.125724E+04;  BLOECHL correction:    0.000000
       DOS:  cpu time      0.0008: real time      0.0008
    CHARGE:  cpu time      0.3386: real time      0.3400
    MIXING:  cpu time      0.0062: real time      0.0062
    --------------------------------------------
      LOOP:  cpu time      5.3781: real time      5.4012

 eigenvalue-minimisations  :  3075
 total energy-change (2. order) : 0.4318824E-01  (-0.1896312E-01)
 number of electron     192.0000009 magnetization      -0.0000000
 augmentation part       11.8524466 magnetization      -0.0000755

 Broyden mixing:
  rms(total) = 0.65001E-01    rms(broyden)= 0.64998E-01
  rms(prec ) = 0.99794E-01
  weight for this iteration     100.00

 eigenvalues of (default mixing * dielectric matrix)
  average eigenvalue GAMMA=   1.4961
  2.4393  1.0655  1.2397  1.2397

 Free energy of the ion-electron system (eV)
  ---------------------------------------------------
  alpha Z        PSCENC =       339.82024828
  Ewald energy   TEWEN  =     -7583.30728767
  -Hartree energ DENC   =     -4751.21856689
  -exchange      EXHF   =         0.00000000
  -V(xc)+E(xc)   XCENC  =       683.42820971
  PAW double counting   =      8490.95533194    -8395.24357806
  entropy T*S    EENTRO =         0.00000000
  eigenvalues    EBANDS =     -1257.23721043
  atomic energy  EATOM  =     12251.67400090
  Solvation  Ediel_sol  =         0.00000000
  ---------------------------------------------------
  free energy    TOTEN  =      -221.12885221 eV

  energy without entropy =     -221.12885221  energy(sigma->0) =     -221.12885221


--------------------------------------------------------------------------------------------------------




--------------------------------------- Iteration      1(  10)  ---------------------------------------


    POTLOK:  cpu time      0.1150: real time      0.1155
    SETDIJ:  cpu time      0.3523: real time      0.3535
    EDDIAG:  cpu time      0.7896: real time      0.7933
  RMM-DIIS:  cpu time      3.7369: real time      3.7528
    ORTHCH:  cpu time      0.0493: real time      0.0495
 BZINTS: Fermi energy:    1.532435;  192.000000 electrons
         Band energy:-0.125248E+04;  BLOECHL correction:    0.000000
       DOS:  cpu time      0.0008: real time      0.0008
    CHARGE:  cpu time      0.3416: real time      0.3438
    MIXING:  cpu time      0.0063: real time      0.0063
    --------------------------------------------
      LOOP:  cpu time      5.3918: real time      5.4155

 eigenvalue-minimisations  :  3072
 total energy-change (2. order) :-0.2842546E-02  (-0.1720541E-01)
 number of electron     192.0000009 magnetization       0.0000000
 augmentation part       11.7512989 magnetization      -0.0000318

 Broyden mixing:
  rms(total) = 0.40420E-01    rms(broyden)= 0.40381E-01
  rms(prec ) = 0.58379E-01
  weight for this iteration     100.00

 eigenvalues of (default mixing * dielectric matrix)
  average eigenvalue GAMMA=   1.5953
  2.4509  2.4509  0.9034  1.0858  1.0858

 Free energy of the ion-electron system (eV)
  ---------------------------------------------------
  alpha Z        PSCENC =       339.82024828
  Ewald energy   TEWEN  =     -7583.30728767
  -Hartree energ DENC   =     -4756.19290318
  -exchange      EXHF   =         0.00000000
  -V(xc)+E(xc)   XCENC  =       683.82925011
  PAW double counting   =      8481.10048278    -8385.57710931
  entropy T*S    EENTRO =         0.00000000
  eigenvalues    EBANDS =     -1252.47837667
  atomic energy  EATOM  =     12251.67400090
  Solvation  Ediel_sol  =         0.00000000
  ---------------------------------------------------
  free energy    TOTEN  =      -221.13169475 eV

  energy without entropy =     -221.13169475  energy(sigma->0) =     -221.13169475


--------------------------------------------------------------------------------------------------------




--------------------------------------- Iteration      1(  11)  ---------------------------------------


    POTLOK:  cpu time      0.1151: real time      0.1157
    SETDIJ:  cpu time      0.3524: real time      0.3532
    EDDIAG:  cpu time      0.7880: real time      0.7928
  RMM-DIIS:  cpu time      3.7360: real time      3.7513
    ORTHCH:  cpu time      0.0492: real time      0.0494
 BZINTS: Fermi energy:    1.492504;  192.000000 electrons
         Band energy:-0.125568E+04;  BLOECHL correction:    0.000000
       DOS:  cpu time      0.0008: real time      0.0008
    CHARGE:  cpu time      0.3386: real time      0.3400
    MIXING:  cpu time      0.0064: real time      0.0064
    --------------------------------------------
      LOOP:  cpu time      5.3865: real time      5.4097

 eigenvalue-minimisations  :  3072
 total energy-change (2. order) : 0.2704224E-02  (-0.1955925E-02)
 number of electron     192.0000009 magnetization      -0.0000000
 augmentation part       11.7739467 magnetization      -0.0000197

 Broyden mixing:
  rms(total) = 0.51537E-02    rms(broyden)= 0.51520E-02
  rms(prec ) = 0.73566E-02
  weight for this iteration     100.00

 eigenvalues of (default mixing * dielectric matrix)
  average eigenvalue GAMMA=   1.5763
  2.8925  2.4695  1.0836  1.0836  1.0563  0.8722

 Free energy of the ion-electron system (eV)
  ---------------------------------------------------
  alpha Z        PSCENC =       339.82024828
  Ewald energy   TEWEN  =     -7583.30728767
  -Hartree energ DENC   =     -4752.83370519
  -exchange      EXHF   =         0.00000000
  -V(xc)+E(xc)   XCENC  =       683.56563181
  PAW double counting   =      8467.97542428    -8372.34296213
  entropy T*S    EENTRO =         0.00000000
  eigenvalues    EBANDS =     -1255.68034082
  atomic energy  EATOM  =     12251.67400090
  Solvation  Ediel_sol  =         0.00000000
  ---------------------------------------------------
  free energy    TOTEN  =      -221.12899053 eV

  energy without entropy =     -221.12899053  energy(sigma->0) =     -221.12899053


--------------------------------------------------------------------------------------------------------




--------------------------------------- Iteration      1(  12)  ---------------------------------------


    POTLOK:  cpu time      0.1140: real time      0.1148
    SETDIJ:  cpu time      0.3549: real time      0.3559
    EDDIAG:  cpu time      0.7872: real time      0.7917
  RMM-DIIS:  cpu time      2.8995: real time      2.9113
    ORTHCH:  cpu time      0.0487: real time      0.0489
 BZINTS: Fermi energy:    1.489915;  192.000000 electrons
         Band energy:-0.125588E+04;  BLOECHL correction:    0.000000
       DOS:  cpu time      0.0008: real time      0.0008
    --------------------------------------------
      LOOP:  cpu time      4.2050: real time      4.2233

 eigenvalue-minimisations  :  2150
 total energy-change (2. order) :-0.5081880E-03  (-0.4619912E-03)
 number of electron     192.0000009 magnetization      -0.0000000
 augmentation part       11.7739467 magnetization      -0.0000197

 Free energy of the ion-electron system (eV)
  ---------------------------------------------------
  alpha Z        PSCENC =       339.82024828
  Ewald energy   TEWEN  =     -7583.30728767
  -Hartree energ DENC   =     -4752.63213739
  -exchange      EXHF   =         0.00000000
  -V(xc)+E(xc)   XCENC  =       683.54281531
  PAW double counting   =      8463.90382171    -8368.24854106
  entropy T*S    EENTRO =         0.00000000
  eigenvalues    EBANDS =     -1255.88241881
  atomic energy  EATOM  =     12251.67400090
  Solvation  Ediel_sol  =         0.00000000
  ---------------------------------------------------
  free energy    TOTEN  =      -221.12949872 eV

  energy without entropy =     -221.12949872  energy(sigma->0) =     -221.12949872


--------------------------------------------------------------------------------------------------------




 average (electrostatic) potential at core
  the test charge radii are     1.0406  0.9698  0.7215
  (the norm of the test charge is              1.0000)
       1 -76.9744       2 -76.9743       3 -76.9662       4 -76.9662       5 -93.2485
       6 -93.2478       7 -93.2505       8 -93.2504       9 -93.2482      10 -93.2482
      11 -72.7930      12 -72.7931      13 -72.7935      14 -72.7936      15 -72.7930
      16 -72.7930      17 -72.7328      18 -72.7331      19 -72.7335      20 -72.7335
      21 -72.8141      22 -72.8143      23 -72.8150      24 -72.8150      25 -72.8141
      26 -72.8142      27 -72.7646      28 -72.7648      29 -72.7652      30 -72.7653
      31 -72.7647      32 -72.7646      33 -72.7327      34 -72.7329
 
 
 
 E-fermi :   1.4899     XC(G=0):  -9.4609     alpha+bet :-10.1001

 val. band max:        1.4479065986   @ k =   0.3333   0.0000   0.0000
 cond. band min:       7.9838825074   @ k =   0.0000   0.0000   0.0000
 fundamental gap:      6.5359759088
 Fermi energy:         1.4899154991

 spin component 1

 k-point     1 :       0.0000    0.0000    0.0000
  band No.  band energies     occupation 
      1     -22.1352      1.00000
      2     -21.9194      1.00000
      3     -21.8958      1.00000
      4     -21.8954      1.00000
      5     -21.8549      1.00000
      6     -21.8544      1.00000
      7     -18.1115      1.00000
      8     -18.0922      1.00000
      9     -18.0349      1.00000
     10     -17.7171      1.00000
     11     -17.6782      1.00000
     12     -17.6780      1.00000
     13     -17.6490      1.00000
     14     -17.6487      1.00000
     15     -17.6337      1.00000
     16     -17.5762      1.00000
     17     -17.5759      1.00000
     18     -17.5626      1.00000
     19     -17.5625      1.00000
     20     -17.5471      1.00000
     21     -17.4223      1.00000
     22     -17.4221      1.00000
     23     -17.3929      1.00000
     24     -17.3928      1.00000
     25      -9.7854      1.00000
     26      -8.0830      1.00000
     27      -7.8098      1.00000
     28      -7.8098      1.00000
     29      -7.6261      1.00000
     30      -7.6105      1.00000
     31      -7.6104      1.00000
     32      -6.9564      1.00000
     33      -6.8408      1.00000
     34      -5.7593      1.00000
     35      -5.7503      1.00000
     36      -5.7502      1.00000
     37      -5.6465      1.00000
     38      -5.4460      1.00000
     39      -5.4460      1.00000
     40      -5.3249      1.00000
     41      -5.3248      1.00000
     42      -5.2980      1.00000
     43      -5.0083      1.00000
     44      -5.0082      1.00000
     45      -4.7811      1.00000
     46      -4.7811      1.00000
     47      -4.7142      1.00000
     48      -4.7142      1.00000
     49      -2.8881      1.00000
     50      -2.7847      1.00000
     51      -2.6839      1.00000
     52      -2.6838      1.00000
     53      -2.5357      1.00000
     54      -2.2493      1.00000
     55      -2.2493      1.00000
     56      -2.1760      1.00000
     57      -2.1758      1.00000
     58      -2.0192      1.00000
     59      -1.6281      1.00000
     60      -1.6045      1.00000
     61      -1.6044      1.00000
     62      -1.4947      1.00000
     63      -1.4946      1.00000
     64      -1.3152      1.00000
     65      -1.1606      1.00000
     66      -0.9754      1.00000
     67      -0.9753      1.00000
     68      -0.9458      1.00000
     69      -0.9457      1.00000
     70      -0.8916      1.00000
     71      -0.8915      1.00000
     72      -0.8162      1.00000
     73      -0.7494      1.00000
     74      -0.5387      1.00000
     75      -0.5385      1.00000
     76      -0.4748      1.00000
     77      -0.4584      1.00000
     78      -0.4583      1.00000
     79       0.0639      1.00000
     80       0.3031      1.00000
     81       0.3031      1.00000
     82       0.3941      1.00000
     83       0.5734      1.00000
     84       0.6256      1.00000
     85       0.6257      1.00000
     86       0.6923      1.00000
     87       0.6923      1.00000
     88       0.9428      1.00000
     89       0.9428      1.00000
     90       0.9799      1.00000
     91       1.0440      1.00000
     92       1.0788      1.00000
     93       1.2665      1.00000
     94       1.2666      1.00000
     95       1.4442      1.00000
     96       1.4442      1.00000
     97       7.9839      0.00000
     98       8.8660      0.00000
     99      10.0010      0.00000
    100      10.0315      0.00000
    101      10.2600      0.00000
    102      10.2602      0.00000
    103      10.2720      0.00000
    104      10.2800      0.00000
    105      10.4045      0.00000
    106      10.4067      0.00000
    107      10.6870      0.00000
    108      10.7186      0.00000
    109      10.7215      0.00000
    110      10.8938      0.00000
    111      10.9063      0.00000
    112      11.0346      0.00000
    113      11.0951      0.00000
    114      11.1104      0.00000
    115      11.3014      0.00000
    116      11.3032      0.00000
    117      11.3530      0.00000
    118      11.5673      0.00000
    119      11.5714      0.00000
    120      11.5888      0.00000
    121      11.5945      0.00000
    122      11.8675      0.00000
    123      12.4749      0.00000
    124      12.9315      0.00000
    125      13.0075      0.00000
    126      13.1572      0.00000
    127      13.2435      0.00000
    128      13.4500      0.00000

 k-point     2 :       0.3333    0.0000    0.0000
  band No.  band energies     occupation 
      1     -22.0784      1.00000
      2     -21.9656      1.00000
      3     -21.8955      1.00000
      4     -21.8887      1.00000
      5     -21.8741      1.00000
      6     -21.8628      1.00000
      7     -18.0691      1.00000
      8     -18.0463      1.00000
      9     -17.9845      1.00000
     10     -17.7266      1.00000
     11     -17.7148      1.00000
     12     -17.6820      1.00000
     13     -17.6587      1.00000
     14     -17.6516      1.00000
     15     -17.6312      1.00000
     16     -17.6197      1.00000
     17     -17.5780      1.00000
     18     -17.5595      1.00000
     19     -17.5160      1.00000
     20     -17.4974      1.00000
     21     -17.4674      1.00000
     22     -17.4543      1.00000
     23     -17.4302      1.00000
     24     -17.4140      1.00000
     25      -9.3946      1.00000
     26      -8.4913      1.00000
     27      -8.1577      1.00000
     28      -8.0793      1.00000
     29      -7.8147      1.00000
     30      -7.6558      1.00000
     31      -7.0882      1.00000
     32      -6.6495      1.00000
     33      -6.4927      1.00000
     34      -6.0031      1.00000
     35      -5.9269      1.00000
     36      -5.7925      1.00000
     37      -5.7270      1.00000
     38      -5.5201      1.00000
     39      -5.5080      1.00000
     40      -5.4213      1.00000
     41      -5.1714      1.00000
     42      -5.1459      1.00000
     43      -4.9474      1.00000
     44      -4.8982      1.00000
     45      -4.8265      1.00000
     46      -4.7495      1.00000
     47      -4.6885      1.00000
     48      -4.6743      1.00000
     49      -2.8346      1.00000
     50      -2.7445      1.00000
     51      -2.6535      1.00000
     52      -2.5513      1.00000
     53      -2.4792      1.00000
     54      -2.3268      1.00000
     55      -2.1761      1.00000
     56      -2.1650      1.00000
     57      -1.9974      1.00000
     58      -1.9207      1.00000
     59      -1.8407      1.00000
     60      -1.6586      1.00000
     61      -1.6348      1.00000
     62      -1.4922      1.00000
     63      -1.4124      1.00000
     64      -1.2307      1.00000
     65      -1.2065      1.00000
     66      -1.1460      1.00000
     67      -1.1012      1.00000
     68      -1.0838      1.00000
     69      -0.9908      1.00000
     70      -0.8983      1.00000
     71      -0.8712      1.00000
     72      -0.8291      1.00000
     73      -0.7751      1.00000
     74      -0.6648      1.00000
     75      -0.6330      1.00000
     76      -0.5698      1.00000
     77      -0.5110      1.00000
     78      -0.5025      1.00000
     79       0.2157      1.00000
     80       0.3040      1.00000
     81       0.3484      1.00000
     82       0.4481      1.00000
     83       0.5572      1.00000
     84       0.5833      1.00000
     85       0.6378      1.00000
     86       0.7840      1.00000
     87       0.8493      1.00000
     88       0.9012      1.00000
     89       0.9253      1.00000
     90       0.9788      1.00000
     91       1.0577      1.00000
     92       1.1107      1.00000
     93       1.2370      1.00000
     94       1.2801      1.00000
     95       1.4048      1.00000
     96       1.4479      1.00000
     97       8.5680      0.00000
     98       9.1387      0.00000
     99       9.5513      0.00000
    100       9.7271      0.00000
    101       9.8946      0.00000
    102      10.1147      0.00000
    103      10.2519      0.00000
    104      10.3100      0.00000
    105      10.4984      0.00000
    106      10.5194      0.00000
    107      10.6778      0.00000
    108      10.7361      0.00000
    109      10.8176      0.00000
    110      10.8582      0.00000
    111      10.9163      0.00000
    112      11.0332      0.00000
    113      11.0488      0.00000
    114      11.1236      0.00000
    115      11.1555      0.00000
    116      11.2832      0.00000
    117      11.3526      0.00000
    118      11.4168      0.00000
    119      11.5213      0.00000
    120      11.6017      0.00000
    121      11.6591      0.00000
    122      11.9992      0.00000
    123      12.5071      0.00000
    124      12.6707      0.00000
    125      12.8446      0.00000
    126      13.0071      0.00000
    127      13.2327      0.00000
    128      13.6743      0.00000

 k-point     3 :       0.3333    0.3333    0.0000
  band No.  band energies     occupation 
      1     -22.0662      1.00000
      2     -21.9412      1.00000
      3     -21.9176      1.00000
      4     -21.9015      1.00000
      5     -21.8909      1.00000
      6     -21.8508      1.00000
      7     -18.0326      1.00000
      8     -18.0181      1.00000
      9     -17.9989      1.00000
     10     -17.7576      1.00000
     11     -17.7053      1.00000
     12     -17.6739      1.00000
     13     -17.6538      1.00000
     14     -17.6441      1.00000
     15     -17.6247      1.00000
     16     -17.6086      1.00000
     17     -17.5854      1.00000
     18     -17.5770      1.00000
     19     -17.5580      1.00000
     20     -17.4941      1.00000
     21     -17.4835      1.00000
     22     -17.4684      1.00000
     23     -17.4162      1.00000
     24     -17.4028      1.00000
     25      -9.3131      1.00000
     26      -8.3236      1.00000
     27      -8.2420      1.00000
     28      -8.1372      1.00000
     29      -7.9593      1.00000
     30      -7.7417      1.00000
     31      -7.1181      1.00000
     32      -6.5505      1.00000
     33      -6.4451      1.00000
     34      -6.1068      1.00000
     35      -5.8710      1.00000
     36      -5.7950      1.00000
     37      -5.5805      1.00000
     38      -5.4897      1.00000
     39      -5.4521      1.00000
     40      -5.4164      1.00000
     41      -5.3956      1.00000
     42      -5.1765      1.00000
     43      -5.0418      1.00000
     44      -4.8635      1.00000
     45      -4.7891      1.00000
     46      -4.7166      1.00000
     47      -4.6667      1.00000
     48      -4.6290      1.00000
     49      -2.8297      1.00000
     50      -2.7665      1.00000
     51      -2.6502      1.00000
     52      -2.5172      1.00000
     53      -2.4120      1.00000
     54      -2.3518      1.00000
     55      -2.1490      1.00000
     56      -2.0797      1.00000
     57      -2.0178      1.00000
     58      -1.8645      1.00000
     59      -1.7740      1.00000
     60      -1.6846      1.00000
     61      -1.5421      1.00000
     62      -1.5134      1.00000
     63      -1.4295      1.00000
     64      -1.3392      1.00000
     65      -1.1690      1.00000
     66      -1.1499      1.00000
     67      -1.1013      1.00000
     68      -1.0872      1.00000
     69      -1.0351      1.00000
     70      -0.9552      1.00000
     71      -0.9040      1.00000
     72      -0.8689      1.00000
     73      -0.8309      1.00000
     74      -0.7479      1.00000
     75      -0.6460      1.00000
     76      -0.5860      1.00000
     77      -0.5476      1.00000
     78      -0.5286      1.00000
     79       0.1576      1.00000
     80       0.3515      1.00000
     81       0.4215      1.00000
     82       0.4871      1.00000
     83       0.5480      1.00000
     84       0.6177      1.00000
     85       0.6834      1.00000
     86       0.7469      1.00000
     87       0.8255      1.00000
     88       0.9169      1.00000
     89       0.9449      1.00000
     90       0.9872      1.00000
     91       1.0716      1.00000
     92       1.1557      1.00000
     93       1.2562      1.00000
     94       1.3031      1.00000
     95       1.3302      1.00000
     96       1.4241      1.00000
     97       8.6953      0.00000
     98       9.1936      0.00000
     99       9.6278      0.00000
    100       9.8160      0.00000
    101       9.9405      0.00000
    102      10.0937      0.00000
    103      10.1593      0.00000
    104      10.2067      0.00000
    105      10.4711      0.00000
    106      10.5361      0.00000
    107      10.6058      0.00000
    108      10.6135      0.00000
    109      10.8137      0.00000
    110      10.8657      0.00000
    111      10.9148      0.00000
    112      11.0237      0.00000
    113      11.0292      0.00000
    114      11.1063      0.00000
    115      11.1997      0.00000
    116      11.2922      0.00000
    117      11.3142      0.00000
    118      11.3603      0.00000
    119      11.4683      0.00000
    120      11.6065      0.00000
    121      11.7141      0.00000
    122      11.9516      0.00000
    123      12.3594      0.00000
    124      12.4320      0.00000
    125      12.9017      0.00000
    126      13.0006      0.00000
    127      13.4330      0.00000
    128      13.5887      0.00000

 k-point     4 :      -0.3333    0.3333    0.0000
  band No.  band energies     occupation 
      1     -22.0074      1.00000
      2     -21.9985      1.00000
      3     -21.9282      1.00000
      4     -21.8964      1.00000
      5     -21.8824      1.00000
      6     -21.8588      1.00000
      7     -18.0161      1.00000
      8     -17.9977      1.00000
      9     -17.9045      1.00000
     10     -17.8839      1.00000
     11     -17.6861      1.00000
     12     -17.6787      1.00000
     13     -17.6744      1.00000
     14     -17.6424      1.00000
     15     -17.6195      1.00000
     16     -17.6068      1.00000
     17     -17.5950      1.00000
     18     -17.5705      1.00000
     19     -17.5501      1.00000
     20     -17.4932      1.00000
     21     -17.4620      1.00000
     22     -17.4525      1.00000
     23     -17.4440      1.00000
     24     -17.4259      1.00000
     25      -8.8527      1.00000
     26      -8.7723      1.00000
     27      -8.4770      1.00000
     28      -8.2444      1.00000
     29      -7.8958      1.00000
     30      -7.6579      1.00000
     31      -6.8536      1.00000
     32      -6.6734      1.00000
     33      -6.2970      1.00000
     34      -6.1473      1.00000
     35      -5.8407      1.00000
     36      -5.8184      1.00000
     37      -5.7630      1.00000
     38      -5.6416      1.00000
     39      -5.4701      1.00000
     40      -5.3571      1.00000
     41      -5.2191      1.00000
     42      -5.1087      1.00000
     43      -4.9706      1.00000
     44      -4.9081      1.00000
     45      -4.8324      1.00000
     46      -4.7094      1.00000
     47      -4.6713      1.00000
     48      -4.6140      1.00000
     49      -2.7689      1.00000
     50      -2.7479      1.00000
     51      -2.6324      1.00000
     52      -2.5354      1.00000
     53      -2.4080      1.00000
     54      -2.2242      1.00000
     55      -2.1917      1.00000
     56      -2.1072      1.00000
     57      -1.9672      1.00000
     58      -1.8252      1.00000
     59      -1.7724      1.00000
     60      -1.6363      1.00000
     61      -1.5999      1.00000
     62      -1.5004      1.00000
     63      -1.4910      1.00000
     64      -1.3986      1.00000
     65      -1.2902      1.00000
     66      -1.2722      1.00000
     67      -1.1712      1.00000
     68      -1.1114      1.00000
     69      -1.0046      1.00000
     70      -0.9533      1.00000
     71      -0.8626      1.00000
     72      -0.7964      1.00000
     73      -0.7749      1.00000
     74      -0.7408      1.00000
     75      -0.7008      1.00000
     76      -0.6329      1.00000
     77      -0.6013      1.00000
     78      -0.5312      1.00000
     79       0.2814      1.00000
     80       0.3632      1.00000
     81       0.3984      1.00000
     82       0.4632      1.00000
     83       0.5395      1.00000
     84       0.6499      1.00000
     85       0.6948      1.00000
     86       0.7863      1.00000
     87       0.8457      1.00000
     88       0.8950      1.00000
     89       0.9457      1.00000
     90       1.0021      1.00000
     91       1.0680      1.00000
     92       1.0995      1.00000
     93       1.2419      1.00000
     94       1.2994      1.00000
     95       1.3817      1.00000
     96       1.4082      1.00000
     97       9.1894      0.00000
     98       9.3060      0.00000
     99       9.3859      0.00000
    100       9.4965      0.00000
    101       9.9390      0.00000
    102      10.0358      0.00000
    103      10.1756      0.00000
    104      10.3401      0.00000
    105      10.3976      0.00000
    106      10.4516      0.00000
    107      10.5107      0.00000
    108      10.6779      0.00000
    109      10.7810      0.00000
    110      10.8136      0.00000
    111      10.8417      0.00000
    112      10.9662      0.00000
    113      11.0203      0.00000
    114      11.1054      0.00000
    115      11.1908      0.00000
    116      11.2356      0.00000
    117      11.2844      0.00000
    118      11.4360      0.00000
    119      11.5257      0.00000
    120      11.6630      0.00000
    121      11.9019      0.00000
    122      11.9969      0.00000
    123      12.1563      0.00000
    124      12.3192      0.00000
    125      12.8956      0.00000
    126      13.1626      0.00000
    127      13.5618      0.00000
    128      13.6821      0.00000

 k-point     5 :       0.3333    0.3333    0.3333
  band No.  band energies     occupation 
      1     -22.0848      1.00000
      2     -21.9771      1.00000
      3     -21.8860      1.00000
      4     -21.8855      1.00000
      5     -21.8652      1.00000
      6     -21.8648      1.00000
      7     -18.0907      1.00000
      8     -18.0437      1.00000
      9     -17.9712      1.00000
     10     -17.7111      1.00000
     11     -17.6903      1.00000
[...]
 total augmentation occupancy for first ion, spin component:           2
  0.000   0.000   0.000   0.000   0.000   0.000   0.000   0.000
  0.000  -0.000   0.000   0.000   0.000  -0.000  -0.000  -0.000
  0.000   0.000   0.000  -0.000   0.000  -0.000   0.000  -0.000
  0.000   0.000  -0.000   0.000  -0.000  -0.000  -0.000   0.000
  0.000   0.000   0.000  -0.000   0.000   0.000   0.000  -0.000
  0.000  -0.000  -0.000  -0.000   0.000   0.000  -0.000   0.000
  0.000  -0.000   0.000  -0.000   0.000  -0.000   0.000  -0.000
  0.000  -0.000  -0.000   0.000  -0.000   0.000  -0.000  -0.000


------------------------ aborting loop because EDIFF is reached ----------------------------------------





 total charge

# of ion       s       p       d       tot
------------------------------------------
    1        0.266   0.346   0.000   0.611
    2        0.266   0.346   0.000   0.611
    3        0.268   0.345   0.000   0.613
    4        0.268   0.345   0.000   0.613
    5        1.214   2.264   0.000   3.478
    6        1.214   2.264   0.000   3.478
    7        1.214   2.264   0.000   3.478
    8        1.214   2.264   0.000   3.478
    9        1.214   2.264   0.000   3.478
   10        1.214   2.264   0.000   3.478
   11        1.568   3.645   0.000   5.213
   12        1.568   3.645   0.000   5.213
   13        1.568   3.645   0.000   5.213
   14        1.568   3.645   0.000   5.213
   15        1.568   3.645   0.000   5.213
   16        1.568   3.645   0.000   5.213
   17        1.572   3.649   0.000   5.222
   18        1.572   3.649   0.000   5.222
   19        1.572   3.649   0.000   5.222
   20        1.572   3.649   0.000   5.222
   21        1.567   3.660   0.000   5.227
   22        1.567   3.660   0.000   5.227
   23        1.567   3.660   0.000   5.227
   24        1.567   3.660   0.000   5.227
   25        1.567   3.660   0.000   5.227
   26        1.567   3.660   0.000   5.227
   27        1.572   3.639   0.000   5.211
   28        1.572   3.639   0.000   5.211
   29        1.572   3.639   0.000   5.211
   30        1.572   3.639   0.000   5.211
   31        1.572   3.639   0.000   5.211
   32        1.572   3.639   0.000   5.211
   33        1.572   3.649   0.000   5.222
   34        1.572   3.649   0.000   5.222
--------------------------------------------------
tot         46.026 102.522   0.000 148.548



 magnetization (x)

# of ion       s       p       d       tot
------------------------------------------
    1        0.000  -0.000   0.000  -0.000
    2        0.000  -0.000   0.000  -0.000
    3        0.000   0.000   0.000   0.000
    4        0.000   0.000   0.000   0.000
    5        0.000  -0.000   0.000  -0.000
    6        0.000  -0.000   0.000  -0.000
    7        0.000  -0.000   0.000  -0.000
    8        0.000  -0.000   0.000  -0.000
    9        0.000  -0.000   0.000  -0.000
   10        0.000  -0.000   0.000  -0.000
   11       -0.000  -0.000   0.000  -0.000
   12       -0.000  -0.000   0.000  -0.000
   13       -0.000  -0.000   0.000  -0.000
   14       -0.000  -0.000   0.000  -0.000
   15       -0.000  -0.000   0.000  -0.000
   16       -0.000  -0.000   0.000  -0.000
   17        0.000  -0.000   0.000  -0.000
   18        0.000  -0.000   0.000  -0.000
   19        0.000  -0.000   0.000  -0.000
   20        0.000  -0.000   0.000  -0.000
   21        0.000  -0.000   0.000  -0.000
   22        0.000  -0.000   0.000  -0.000
   23        0.000  -0.000   0.000  -0.000
   24        0.000  -0.000   0.000  -0.000
   25        0.000  -0.000   0.000  -0.000
   26        0.000  -0.000   0.000  -0.000
   27        0.000  -0.000   0.000  -0.000
   28        0.000  -0.000   0.000  -0.000
   29        0.000  -0.000   0.000  -0.000
   30        0.000  -0.000   0.000  -0.000
   31        0.000  -0.000   0.000  -0.000
   32        0.000  -0.000   0.000  -0.000
   33        0.000  -0.000   0.000  -0.000
   34        0.000  -0.000   0.000  -0.000
--------------------------------------------------
tot          0.000  -0.000   0.000  -0.000
 
    CHARGE:  cpu time      0.3325: real time      0.3341
    FORLOC:  cpu time      0.0134: real time      0.0135
    FORNL :  cpu time      1.4267: real time      1.4330
    STRESS:  cpu time      4.1867: real time      4.2043
    FORCOR:  cpu time      0.1080: real time      0.1086
    FORHAR:  cpu time      0.0210: real time      0.0211
    MIXING:  cpu time      0.0060: real time      0.0060
    OFIELD:  cpu time      0.0000: real time      0.0000

  FORCE on cell =-STRESS in cart. coord.  units (eV):
  Direction    XX          YY          ZZ          XY          YZ          ZX
  --------------------------------------------------------------------------------------
  Alpha Z   328.64007   328.64007   328.64007
  Ewald   -2597.00475 -2449.68111 -2465.29085     0.00407     0.00356   -47.97320
  Hartree  1529.45120  1628.88918  1618.34808     0.00006    -0.00018   -32.37714
  E(xc)    -903.30562  -903.30625  -903.30616     0.00000    -0.00002     0.00023
  Local   -2068.75842 -2314.66484 -2288.60471    -0.00348    -0.00128    80.06979
  n-local  -165.36267  -162.31592  -162.69733    -0.03401     0.06057    -1.01892
  augment    70.49941    70.26964    70.29412    -0.00738    -0.02284     0.07489
  Kinetic  3805.59956  3801.78277  3802.46837     0.10642    -0.17649     1.42980
  Fock        0.00000     0.00000     0.00000     0.00000     0.00000     0.00000
  -------------------------------------------------------------------------------------
  Total      -0.13260    -0.33234    -0.31116    -0.00000    -0.00000     0.06503
  in kB      -0.51787    -1.29792    -1.21522    -0.00000    -0.00000     0.25398
  external pressure =       -1.01 kB  Pullay stress =        0.00 kB


 VOLUME and BASIS-vectors are now :
 -----------------------------------------------------------------------------
  energy-cutoff  :      520.00
  volume of cell :      410.24
      direct lattice vectors                 reciprocal lattice vectors
     7.571572284 -4.055507847  0.002847990     0.066056536 -0.123289147 -0.053351273
     7.571573654  4.055508226  0.002844895     0.066056530  0.123289084 -0.053351260
     5.396843863 -0.000000216  6.682068103    -0.000056278  0.000000057  0.149699720

  length of vectors
     8.589287447  8.589288833  8.589293209     0.149699827  0.149699768  0.149699730


 FORCES acting on ions
    electron-ion (+dipol)            ewald-force                    non-local-force                 convergence-correction
 -----------------------------------------------------------------------------------------------
   0.152E+02 -.298E-03 0.496E+01   -.155E+02 0.652E-03 -.506E+01   0.323E+00 0.257E-08 0.105E+00   -.148E-01 0.132E-06 -.481E-02
   -.152E+02 -.253E-03 -.496E+01   0.155E+02 -.126E-03 0.506E+01   -.323E+00 -.257E-08 -.105E+00   0.148E-01 -.303E-06 0.481E-02
   -.312E+02 0.174E-03 -.102E+02   0.303E+02 -.167E-03 0.985E+01   0.893E+00 0.710E-08 0.291E+00   0.152E-01 0.304E-06 0.494E-02
   0.312E+02 0.487E-03 0.102E+02   -.303E+02 -.655E-03 -.985E+01   -.893E+00 -.710E-08 -.291E+00   -.152E-01 -.385E-06 -.494E-02
   0.781E+01 0.413E+02 -.711E+01   -.757E+01 -.414E+02 0.637E+01   -.188E+00 0.439E-01 0.798E+00   -.108E+00 -.250E-01 -.108E+00
   -.752E+01 -.127E+02 0.400E+02   0.742E+01 0.134E+02 -.397E+02   0.179E+00 -.730E+00 -.331E+00   -.133E+00 0.722E-01 -.298E-01
   0.146E+02 -.286E+02 -.280E+02   -.148E+02 0.280E+02 0.284E+02   0.203E+00 0.686E+00 -.404E+00   -.146E+00 -.472E-01 0.114E-01
   0.752E+01 0.127E+02 -.400E+02   -.742E+01 -.134E+02 0.397E+02   -.179E+00 0.730E+00 0.331E+00   0.133E+00 -.722E-01 0.298E-01
   -.781E+01 -.413E+02 0.711E+01   0.757E+01 0.414E+02 -.637E+01   0.188E+00 -.439E-01 -.798E+00   0.108E+00 0.250E-01 0.108E+00
   -.146E+02 0.286E+02 0.280E+02   0.148E+02 -.280E+02 -.284E+02   -.203E+00 -.686E+00 0.404E+00   0.146E+00 0.472E-01 -.114E-01
   -.463E+02 0.185E+03 -.474E+02   0.431E+02 -.222E+03 0.599E+02   0.308E+01 0.364E+02 -.126E+02   0.172E+00 0.152E+00 0.135E-01
   -.110E+03 -.661E+02 0.149E+03   0.123E+03 0.731E+02 -.185E+03   -.127E+02 -.700E+01 0.358E+02   0.113E+00 -.410E-01 0.196E+00
   -.109E+02 -.119E+03 -.156E+03   0.382E+01 0.149E+03 0.180E+03   0.683E+01 -.294E+02 -.241E+02   0.194E+00 -.111E+00 -.541E-01
   0.463E+02 -.185E+03 0.474E+02   -.430E+02 0.222E+03 -.599E+02   -.308E+01 -.364E+02 0.126E+02   -.172E+00 -.152E+00 -.135E-01
   0.110E+03 0.661E+02 -.149E+03   -.123E+03 -.731E+02 0.185E+03   0.127E+02 0.700E+01 -.358E+02   -.113E+00 0.410E-01 -.196E+00
   0.109E+02 0.119E+03 0.156E+03   -.383E+01 -.149E+03 -.180E+03   -.683E+01 0.294E+02 0.241E+02   -.194E+00 0.111E+00 0.541E-01
   -.688E+01 0.832E+00 0.183E+03   0.133E+02 0.219E-01 -.223E+03   -.656E+01 -.937E+00 0.402E+02   0.163E+00 0.875E-01 -.761E-01
   0.746E+02 -.153E+03 -.674E+02   -.870E+02 0.187E+03 0.852E+02   0.124E+02 -.344E+02 -.180E+02   0.828E-01 0.627E-01 0.171E+00
   0.750E+02 0.152E+03 -.688E+02   -.870E+02 -.187E+03 0.852E+02   0.119E+02 0.353E+02 -.164E+02   0.130E+00 -.150E+00 0.272E-01
   0.688E+01 -.827E+00 -.183E+03   -.133E+02 -.252E-01 0.223E+03   0.656E+01 0.937E+00 -.402E+02   -.163E+00 -.875E-01 0.761E-01
   0.146E+03 0.462E+02 0.620E+02   -.181E+03 -.563E+02 -.661E+02   0.355E+02 0.101E+02 0.422E+01   -.755E-01 0.484E-01 -.273E-01
   0.164E+03 -.111E+02 0.416E+01   -.199E+03 0.222E+02 -.991E+01   0.350E+02 -.111E+02 0.585E+01   -.638E-01 -.264E-01 -.635E-01
   0.140E+03 -.351E+02 0.802E+02   -.169E+03 0.341E+02 -.103E+03   0.296E+02 0.990E+00 0.225E+02   -.897E-01 -.220E-01 0.162E-01
   -.146E+03 -.462E+02 -.620E+02   0.181E+03 0.564E+02 0.661E+02   -.355E+02 -.101E+02 -.422E+01   0.755E-01 -.484E-01 0.273E-01
   -.164E+03 0.111E+02 -.416E+01   0.199E+03 -.222E+02 0.991E+01   -.350E+02 0.111E+02 -.585E+01   0.638E-01 0.264E-01 0.635E-01
   -.140E+03 0.351E+02 -.802E+02   0.169E+03 -.341E+02 0.103E+03   -.296E+02 -.990E+00 -.225E+02   0.897E-01 0.220E-01 -.162E-01
   -.104E+03 -.820E+02 -.107E+03   0.123E+03 0.942E+02 0.139E+03   -.191E+02 -.123E+02 -.316E+02   -.152E+00 0.856E-01 -.220E+00
   -.158E+03 -.197E+02 0.600E+02   0.192E+03 0.346E+02 -.728E+02   -.337E+02 -.147E+02 0.130E+02   -.205E+00 -.183E+00 -.595E-01
   -.114E+03 0.102E+03 -.751E+02   0.142E+03 -.129E+03 0.823E+02   -.271E+02 0.271E+02 -.735E+01   -.250E+00 0.973E-01 0.814E-01
   0.104E+03 0.820E+02 0.107E+03   -.123E+03 -.942E+02 -.139E+03   0.191E+02 0.123E+02 0.316E+02   0.152E+00 -.856E-01 0.220E+00
   0.158E+03 0.197E+02 -.600E+02   -.192E+03 -.346E+02 0.728E+02   0.337E+02 0.147E+02 -.130E+02   0.205E+00 0.183E+00 0.595E-01
   0.114E+03 -.102E+03 0.751E+02   -.142E+03 0.129E+03 -.823E+02   0.271E+02 -.271E+02 0.735E+01   0.250E+00 -.973E-01 -.814E-01
   -.750E+02 -.152E+03 0.688E+02   0.870E+02 0.187E+03 -.852E+02   -.119E+02 -.353E+02 0.164E+02   -.130E+00 0.150E+00 -.272E-01
   -.746E+02 0.153E+03 0.675E+02   0.870E+02 -.187E+03 -.852E+02   -.124E+02 0.344E+02 0.180E+02   -.828E-01 -.627E-01 -.171E+00
 -----------------------------------------------------------------------------------------------
   0.227E-01 -.165E-02 -.493E-02   -.995E-13 -.284E-12 0.171E-12   0.178E-14 -.213E-13 -.107E-13   -.171E-05 -.648E-05 0.557E-05
 
 
 POSITION                                       TOTAL-FORCE (eV/Angst)
 -----------------------------------------------------------------------------------
      2.94692     -0.00000      0.95951         0.009835      0.000000      0.003202
     17.59307     -0.00000      5.72826        -0.009835     -0.000000     -0.003202
      7.22685      0.00000      2.35304        -0.019287     -0.000000     -0.006280
     13.31314      0.00001      4.33472         0.019287      0.000000      0.006280
     12.72232      1.72161      1.66467        -0.052487     -0.034450     -0.055305
     11.16663      1.17950      6.44266        -0.060125      0.048695     -0.031846
     12.08982     -2.90111      3.60725        -0.078599     -0.014244      0.024893
      9.37337     -1.17950      0.24510         0.060125     -0.048695      0.031846
      7.81767     -1.72160      5.02309         0.052487      0.034450      0.055305
      8.45017      2.90111      3.08051         0.078599      0.014244     -0.024893
      8.10177      1.46681      3.18589        -0.048037     -0.017664     -0.052615
      7.95046     -1.18465      3.65059        -0.059627      0.039279     -0.017016
      8.73702     -0.28218      1.23483        -0.069100     -0.021615      0.012076
     12.43822     -1.46682      3.50189         0.048037      0.017664      0.052615
     12.58953      1.18465      3.03716         0.059627     -0.039279      0.017016
     11.80297      0.28216      5.45293         0.069100      0.021615     -0.012076
      9.04691      3.17550      1.76258        -0.012233      0.002097      0.064892
      7.67307     -0.61352      5.98202         0.017618     -0.057766     -0.026791
      9.37590     -2.56197      0.75212         0.018743      0.055669     -0.030245
     11.49309     -3.17550      4.92517         0.012233     -0.002097     -0.064892
      9.78105      0.70705      6.63194         0.069102     -0.013596      0.015764
     11.49287      2.48520      1.37445         0.062482      0.001252      0.036095
     11.11374     -3.19223      2.53894         0.069773      0.012345      0.013703
     10.75891     -0.70705      0.05583        -0.069102      0.013596     -0.015764
      9.04712     -2.48520      5.31330        -0.062482     -0.001252     -0.036095
      9.42627      3.19225      4.14883        -0.069773     -0.012345     -0.013703
      6.50956      1.18521      1.04724         0.025635     -0.079832     -0.003414
      6.35384     -1.47558      1.52546        -0.000963      0.030231      0.078276
      5.71828      0.29038      3.47745         0.041847      0.049601     -0.053204
     14.03044     -1.18522      5.64054        -0.025635      0.079832      0.003414
     14.18614      1.47558      5.16229         0.000963     -0.030231     -0.078276
     14.82170     -0.29037      3.21032        -0.041847     -0.049601      0.053204
     11.16408      2.56198      5.93563        -0.018743     -0.055669      0.030245
     12.86692      0.61353      0.70573        -0.017618      0.057766      0.026791
 -----------------------------------------------------------------------------------
    total drift:                                0.022655     -0.001658     -0.004922


--------------------------------------------------------------------------------------------------------



  FREE ENERGIE OF THE ION-ELECTRON SYSTEM (eV)
  ---------------------------------------------------
  free  energy   TOTEN  =      -221.40473681 eV

  energy  without entropy=     -221.40473681  energy(sigma->0) =     -221.40473681
 
 d Force = 0.2735198E-01[ 0.322E-02, 0.515E-01]  d Energy = 0.2631377E-01 0.104E-02
 d Force = 0.1319866E+02[ 0.130E+02, 0.134E+02]  d Ewald  = 0.1443178E+02-0.123E+01


--------------------------------------------------------------------------------------------------------


    POTLOK:  cpu time      0.4771: real time      0.4787


--------------------------------------------------------------------------------------------------------




--------------------------------------------------------------------------------------------------------


  
 reached required accuracy - stopping structural energy minimisation
     LOOP+:  cpu time     22.9247: real time     23.0268
    4ORBIT:  cpu time      0.0000: real time      0.0000



 total charge

# of ion       s       p       d       tot
------------------------------------------
    1        0.266   0.346   0.000   0.611
    2        0.266   0.346   0.000   0.611
    3        0.268   0.345   0.000   0.613
    4        0.268   0.345   0.000   0.613
    5        1.214   2.264   0.000   3.478
    6        1.214   2.264   0.000   3.478
    7        1.214   2.264   0.000   3.478
    8        1.214   2.264   0.000   3.478
    9        1.214   2.264   0.000   3.478
   10        1.214   2.264   0.000   3.478
   11        1.568   3.645   0.000   5.213
   12        1.568   3.645   0.000   5.213
   13        1.568   3.645   0.000   5.213
   14        1.568   3.645   0.000   5.213
   15        1.568   3.645   0.000   5.213
   16        1.568   3.645   0.000   5.213
   17        1.572   3.649   0.000   5.222
   18        1.572   3.649   0.000   5.222
   19        1.572   3.649   0.000   5.222
   20        1.572   3.649   0.000   5.222
   21        1.567   3.660   0.000   5.227
   22        1.567   3.660   0.000   5.227
   23        1.567   3.660   0.000   5.227
   24        1.567   3.660   0.000   5.227
   25        1.567   3.660   0.000   5.227
   26        1.567   3.660   0.000   5.227
   27        1.572   3.639   0.000   5.211
   28        1.572   3.639   0.000   5.211
   29        1.572   3.639   0.000   5.211
   30        1.572   3.639   0.000   5.211
   31        1.572   3.639   0.000   5.211
   32        1.572   3.639   0.000   5.211
   33        1.572   3.649   0.000   5.222
   34        1.572   3.649   0.000   5.222
--------------------------------------------------
tot         46.026 102.522   0.000 148.548



 magnetization (x)

# of ion       s       p       d       tot
------------------------------------------
    1        0.000  -0.000   0.000  -0.000
    2        0.000  -0.000   0.000  -0.000
    3        0.000   0.000   0.000   0.000
    4        0.000   0.000   0.000   0.000
    5        0.000  -0.000   0.000  -0.000
    6        0.000  -0.000   0.000  -0.000
    7        0.000  -0.000   0.000  -0.000
    8        0.000  -0.000   0.000  -0.000
    9        0.000  -0.000   0.000  -0.000
   10        0.000  -0.000   0.000  -0.000
   11       -0.000  -0.000   0.000  -0.000
   12       -0.000  -0.000   0.000  -0.000
   13       -0.000  -0.000   0.000  -0.000
   14       -0.000  -0.000   0.000  -0.000
   15       -0.000  -0.000   0.000  -0.000
   16       -0.000  -0.000   0.000  -0.000
   17        0.000  -0.000   0.000  -0.000
   18        0.000  -0.000   0.000  -0.000
   19        0.000  -0.000   0.000  -0.000
   20        0.000  -0.000   0.000  -0.000
   21        0.000  -0.000   0.000  -0.000
   22        0.000  -0.000   0.000  -0.000
   23        0.000  -0.000   0.000  -0.000
   24        0.000  -0.000   0.000  -0.000
   25        0.000  -0.000   0.000  -0.000
   26        0.000  -0.000   0.000  -0.000
   27        0.000  -0.000   0.000  -0.000
   28        0.000  -0.000   0.000  -0.000
   29        0.000  -0.000   0.000  -0.000
   30        0.000  -0.000   0.000  -0.000
   31        0.000  -0.000   0.000  -0.000
   32        0.000  -0.000   0.000  -0.000
   33        0.000  -0.000   0.000  -0.000
   34        0.000  -0.000   0.000  -0.000
--------------------------------------------------
tot          0.000  -0.000   0.000  -0.000
 
 BZINTS: Fermi energy:    1.188642;  192.000000 electrons
         Band energy:-0.128916E+04;  BLOECHL correction:    0.000000

 total amount of memory used by VASP MPI-rank0    97135. kBytes
=======================================================================

   base      :      30000. kBytes
   nonlr-proj:      11746. kBytes
   fftplans  :       5538. kBytes
   grid      :      32784. kBytes
   one-center:        208. kBytes
   wavefun   :      16859. kBytes
 
  
  
 General timing and accounting informations for this job:
 ========================================================
  
                  Total CPU time used (sec):      273.113
                            User time (sec):      267.641
                          System time (sec):        5.472
                         Elapsed time (sec):      276.205
  
                   Maximum memory used (kb):      394624.
                   Average memory used (kb):          N/A
  
                          Minor page faults:        64313
                          Major page faults:            0
                 Voluntary context switches:        11753
