 vasp.6.4.3 19Mar24 (build Oct 16 2024 18:29:25) complex                        
  
 executed on             LinuxIFC date 2025.08.13  19:44:20
 running   16 mpi-ranks, with    1 threads/rank, on    1 nodes
 distrk:  each k-point on   16 cores,    1 groups
 distr:  one band on NCORE=   1 cores,   16 groups


--------------------------------------------------------------------------------------------------------


 INCAR:
   ALGO = Fast
   EDIFF = 0.00030000000000000003
   ENCUT = 520.0
   IBRION = 2
   ISIF = 3
   ISMEAR = -5
   ISPIN = 2
   LASPH = True
   LORBIT = 11
   LREAL = Auto
   LWAVE = False
   MAGMOM = 6*0.0
   NELM = 100
   NSW = 99
   PREC = Accurate
   SIGMA = 0.05

 POTCAR:   PAW_PBE Al 04Jan2001                   
 POTCAR:    PAW_PBE Cl 17Jan2003                  
 POTCAR:   PAW_PBE O 08Apr2002                    
 POTCAR:   PAW_PBE Al 04Jan2001                   
   VRHFIN =Al: s2p1                                                                                 
   LEXCH  = PE                                                                                      
   EATOM  =    53.5387 eV,    3.9350 Ry                                                             
                                                                                                    
   TITEL  = PAW_PBE Al 04Jan2001                                                                    
   LULTRA =        F    use ultrasoft PP ?                                                          
   IUNSCR =        1    unscreen: 0-lin 1-nonlin 2-no                                               
   RPACOR =    1.500    partial core radius                                                         
   POMASS =   26.982; ZVAL   =    3.000    mass and valenz                                          
   RCORE  =    1.900    outmost cutoff radius                                                       
   RWIGS  =    2.650; RWIGS  =    1.402    wigner-seitz radius (au A)                               
   ENMAX  =  240.300; ENMIN  =  180.225 eV                                                          
   ICORE  =        2    local potential                                                             
   LCOR   =        T    correct aug charges                                                         
   LPAW   =        T    paw PP                                                                      
   EAUG   =  291.052                                                                                
   DEXC   =    -.041                                                                                
   RMAX   =    2.974    core radius for proj-oper                                                   
   RAUG   =    1.300    factor for augmentation sphere                                              
   RDEP   =    1.966    radius for radial grids                                                     
   QCUT   =   -4.203; QGAM   =    8.405    optimization parameters                                  
                                                                                                    
   Description                                                                                      
     l     E      TYP  RCUT    TYP  RCUT                                                            
     0   .000     23  1.900                                                                         
     0   .000     23  1.900                                                                         
     1   .000     23  1.900                                                                         
     1  1.000     23  1.900                                                                         
     2   .000      7  1.900                                                                         
  local pseudopotential read in
  partial core-charges read in
  atomic valenz-charges read in
  non local Contribution for L=           0  read in
    real space projection operators read in
  non local Contribution for L=           0  read in
    real space projection operators read in
  non local Contribution for L=           1  read in
    real space projection operators read in
  non local Contribution for L=           1  read in
    real space projection operators read in
    PAW grid and wavefunctions read in
 
   number of l-projection  operators is LMAX  =           4
   number of lm-projection operators is LMMAX =           8
 
 POTCAR:    PAW_PBE Cl 17Jan2003                  
   VRHFIN =Cl: s2p5                                                                                 
   LEXCH  = PE                                                                                      
   EATOM  =   409.7259 eV,   30.1140 Ry                                                             
                                                                                                    
   TITEL  = PAW_PBE Cl 17Jan2003                                                                    
   LULTRA =        F    use ultrasoft PP ?                                                          
   IUNSCR =        1    unscreen: 0-lin 1-nonlin 2-no                                               
   RPACOR =    1.500    partial core radius                                                         
   POMASS =   35.453; ZVAL   =    7.000    mass and valenz                                          
   RCORE  =    1.900    outmost cutoff radius                                                       
   RWIGS  =    2.100; RWIGS  =    1.111    wigner-seitz radius (au A)                               
   ENMAX  =  280.000; ENMIN  =  196.854 eV                                                          
   ICORE  =        2    local potential                                                             
   LCOR   =        T    correct aug charges                                                         
   LPAW   =        T    paw PP                                                                      
   EAUG   =  356.192                                                                                
   DEXC   =     .000                                                                                
   RMAX   =    2.846    core radius for proj-oper                                                   
   RAUG   =    1.300    factor for augmentation sphere                                              
   RDEP   =    2.020    radius for radial grids                                                     
   QCUT   =   -4.392; QGAM   =    8.784    optimization parameters                                  
                                                                                                    
   Description                                                                                      
     l     E      TYP  RCUT    TYP  RCUT                                                            
     0   .000     23  1.900                                                                         
     0   .000     23  1.900                                                                         
     1   .000     23  1.900                                                                         
     1   .000     23  1.900                                                                         
     2   .000     23  1.900                                                                         
  local pseudopotential read in
  partial core-charges read in
  atomic valenz-charges read in
  non local Contribution for L=           0  read in
    real space projection operators read in
  non local Contribution for L=           0  read in
    real space projection operators read in
  non local Contribution for L=           1  read in
    real space projection operators read in
  non local Contribution for L=           1  read in
    real space projection operators read in
    PAW grid and wavefunctions read in
 
   number of l-projection  operators is LMAX  =           4
   number of lm-projection operators is LMMAX =           8
 
 POTCAR:   PAW_PBE O 08Apr2002                    
   VRHFIN =O: s2p4                                                                                  
   LEXCH  = PE                                                                                      
   EATOM  =   432.3788 eV,   31.7789 Ry                                                             
                                                                                                    
   TITEL  = PAW_PBE O 08Apr2002                                                                     
   LULTRA =        F    use ultrasoft PP ?                                                          
   IUNSCR =        0    unscreen: 0-lin 1-nonlin 2-no                                               
   RPACOR =     .000    partial core radius                                                         
   POMASS =   16.000; ZVAL   =    6.000    mass and valenz                                          
   RCORE  =    1.520    outmost cutoff radius                                                       
   RWIGS  =    1.550; RWIGS  =     .820    wigner-seitz radius (au A)                               
   ENMAX  =  400.000; ENMIN  =  300.000 eV                                                          
   ICORE  =        2    local potential                                                             
   LCOR   =        T    correct aug charges                                                         
   LPAW   =        T    paw PP                                                                      
   EAUG   =  605.392                                                                                
   DEXC   =     .000                                                                                
   RMAX   =    2.264    core radius for proj-oper                                                   
   RAUG   =    1.300    factor for augmentation sphere                                              
   RDEP   =    1.550    radius for radial grids                                                     
   QCUT   =   -5.520; QGAM   =   11.041    optimization parameters                                  
                                                                                                    
   Description                                                                                      
     l     E      TYP  RCUT    TYP  RCUT                                                            
     0   .000     23  1.200                                                                         
     0  -.700     23  1.200                                                                         
     1   .000     23  1.520                                                                         
     1   .600     23  1.520                                                                         
     2   .000      7  1.500                                                                         
  local pseudopotential read in
  atomic valenz-charges read in
  non local Contribution for L=           0  read in
    real space projection operators read in
  non local Contribution for L=           0  read in
    real space projection operators read in
  non local Contribution for L=           1  read in
    real space projection operators read in
  non local Contribution for L=           1  read in
    real space projection operators read in
    PAW grid and wavefunctions read in
 
   number of l-projection  operators is LMAX  =           4
   number of lm-projection operators is LMMAX =           8
 
 -----------------------------------------------------------------------------
|                                                                             |
|               ----> ADVICE to this user running VASP <----                  |
|                                                                             |
|     You have a (more or less) 'small supercell' and for smaller cells       |
|     it is recommended to use the reciprocal-space projection scheme!        |
|     The real-space optimization is not efficient for small cells and it     |
|     is also less accurate ...                                               |
|     Therefore, set LREAL=.FALSE. in the INCAR file.                         |
|                                                                             |
 -----------------------------------------------------------------------------

 Optimization of the real space projectors (new method)

 maximal supplied QI-value         = 19.84
 optimisation between [QCUT,QGAM] = [ 11.51, 23.22] = [ 37.09,150.92] Ry 
 Optimized for a Real-space Cutoff    1.18 Angstroem

   l    n(q)    QCUT    max X(q) W(low)/X(q) W(high)/X(q)  e(spline) 
   0      8    11.508    13.410    0.14E-04    0.92E-05    0.50E-08
   0      8    11.508   140.052    0.11E-03    0.16E-03    0.39E-07
   1      8    11.508     9.624    0.12E-04    0.31E-04    0.22E-07
   1      8    11.508    53.353    0.21E-03    0.91E-04    0.68E-07
 Optimization of the real space projectors (new method)

 maximal supplied QI-value         = 19.84
 optimisation between [QCUT,QGAM] = [ 11.51, 23.22] = [ 37.09,150.92] Ry 
 Optimized for a Real-space Cutoff    1.21 Angstroem

   l    n(q)    QCUT    max X(q) W(low)/X(q) W(high)/X(q)  e(spline) 
   0      8    11.508     4.846    0.17E-04    0.72E-06    0.45E-08
   0      8    11.508    64.115    0.84E-04    0.16E-03    0.48E-07
   1      8    11.508     3.092    0.23E-04    0.25E-04    0.20E-07
   1      8    11.508    37.586    0.18E-03    0.67E-04    0.95E-07
 Optimization of the real space projectors (new method)

 maximal supplied QI-value         = 24.76
 optimisation between [QCUT,QGAM] = [ 11.64, 23.27] = [ 37.91,151.63] Ry 
 Optimized for a Real-space Cutoff    1.08 Angstroem

   l    n(q)    QCUT    max X(q) W(low)/X(q) W(high)/X(q)  e(spline) 
   0      7    11.635     4.192    0.54E-04    0.80E-04    0.26E-07
   0      7    11.635     8.473    0.70E-04    0.40E-03    0.21E-06
   1      7    11.635     2.474    0.39E-04    0.14E-03    0.23E-07
   1      7    11.635     3.912    0.25E-03    0.37E-03    0.22E-06
 PAW_PBE Al 04Jan2001                   :
 energy of atom  1       EATOM=  -53.5387
 kinetic energy error for atom=    0.0002 (will be added to EATOM!!)
  PAW_PBE Cl 17Jan2003                  :
 energy of atom  2       EATOM= -409.7259
 kinetic energy error for atom=    0.0023 (will be added to EATOM!!)
 PAW_PBE O 08Apr2002                    :
 energy of atom  3       EATOM= -432.3788
 kinetic energy error for atom=    0.0208 (will be added to EATOM!!)
 
 
 POSCAR: Al2 Cl2 O2
  positions in direct lattice
  No initial velocities read in


 exchange-correlation table for PE
   RHO(1)=    0.500       N(1)  =     2000
   RHO(2)=  100.500       N(2)  =     4000
 


--------------------------------------------------------------------------------------------------------


 ion  position               nearest neighbor table
   1  0.750  0.250  0.896-   5 1.86   5 1.86   6 1.98   6 1.98   3 2.29   3 2.29   2 2.91   2 2.91
                             2 2.91   2 2.91
   2  0.250  0.750  0.104-   6 1.86   6 1.86   5 1.98   5 1.98   4 2.29   4 2.29   1 2.91   1 2.91
                             1 2.91   1 2.91
   3  0.750  0.750  0.686-   1 2.29   1 2.29
   4  0.250  0.250  0.314-   2 2.29   2 2.29
   5  0.250  0.250  0.951-   1 1.86   1 1.86   2 1.98   2 1.98
   6  0.750  0.750  0.049-   2 1.86   2 1.86   1 1.98   1 1.98
 
  LATTYP: Found a simple orthorhombic cell.
 ALAT       =     3.1414401500
 B/A-ratio  =     1.1520268308
 C/A-ratio  =     2.5230423696
  
  Lattice vectors:
  
 A1 = (   0.0000000000,  -3.1414401500,   0.0000000000)
 A2 = (   3.6190233400,   0.0000000000,   0.0000000000)
 A3 = (   0.0000000000,   0.0000000000,   7.9259866000)


Analysis of symmetry for initial positions (statically):
=====================================================================
 Subroutine PRICEL returns:
 Original cell was already a primitive cell.
 

 Routine SETGRP: Setting up the symmetry group for a 
 simple orthorhombic supercell.


 Subroutine GETGRP returns: Found  8 space group operations
 (whereof  2 operations were pure point group operations)
 out of a pool of  8 trial point group operations.


The static configuration has the point symmetry S_2 .
 The point group associated with its full space group is D_2h.


Analysis of symmetry for dynamics (positions and initial velocities):
=====================================================================
 Subroutine PRICEL returns:
 Original cell was already a primitive cell.
 

 Routine SETGRP: Setting up the symmetry group for a 
 simple orthorhombic supercell.


 Subroutine GETGRP returns: Found  8 space group operations
 (whereof  2 operations were pure point group operations)
 out of a pool of  8 trial point group operations.


The dynamic configuration has the point symmetry S_2 .
 The point group associated with its full space group is D_2h.


Analysis of structural, dynamic, and magnetic symmetry:
=====================================================================
 Subroutine PRICEL returns:
 Original cell was already a primitive cell.
 

 Routine SETGRP: Setting up the symmetry group for a 
 simple orthorhombic supercell.


 Subroutine GETGRP returns: Found  8 space group operations
 (whereof  2 operations were pure point group operations)
 out of a pool of  8 trial point group operations.


The overall configuration has the point symmetry S_2 .
 The point group associated with its full space group is D_2h.


 Subroutine INISYM returns: Found  8 space group operations
 (whereof  2 operations are pure point group operations),
 and found     1 'primitive' translations


----------------------------------------------------------------------------------------

                                     Primitive cell                                     

  volume of cell :      90.1101

  direct lattice vectors                    reciprocal lattice vectors
     3.619023340  0.000000000  0.000000000     0.276317643  0.000000000  0.000000000
     0.000000000  3.141440150  0.000000000     0.000000000  0.318325339  0.000000000
     0.000000000  0.000000000  7.925986600     0.000000000  0.000000000  0.126167258

  length of vectors
     3.619023340  3.141440150  7.925986600     0.276317643  0.318325339  0.126167258

  position of ions in fractional coordinates (direct lattice)
     0.750000000  0.250000000  0.896373420
     0.250000000  0.750000000  0.103626580
     0.750000000  0.750000000  0.685550880
     0.250000000  0.250000000  0.314449120
     0.250000000  0.250000000  0.951388750
     0.750000000  0.750000000  0.048611250

  ion indices of the primitive-cell ions
   primitive index   ion index
                 1           1
                 2           2
                 3           3
                 4           4
                 5           5
                 6           6

----------------------------------------------------------------------------------------

 
 
 KPOINTS: pymatgen with grid density = 1057 / numb

Automatic generation of k-mesh.
 Grid dimensions read from file:
 generate k-points for:    6    8    3

 Generating k-lattice:

  Cartesian coordinates                     Fractional coordinates (reciprocal lattice)
     0.046052941  0.000000000  0.000000000     0.166666667  0.000000000  0.000000000
     0.000000000  0.039790667  0.000000000     0.000000000  0.125000000  0.000000000
     0.000000000  0.000000000  0.042055753     0.000000000  0.000000000  0.333333333

  Length of vectors
     0.046052941  0.039790667  0.042055753

  Shift w.r.t. Gamma in fractional coordinates (k-lattice)
     0.000000000  0.000000000  0.000000000

 TETIRR: Found    432 inequivalent tetrahedra from      864
 
 Subroutine IBZKPT returns following result:
 ===========================================
 
 Found     40 irreducible k-points:
 
 Following reciprocal coordinates:
            Coordinates               Weight
  0.000000  0.000000  0.000000      1.000000
  0.166667  0.000000  0.000000      2.000000
  0.333333  0.000000  0.000000      2.000000
  0.500000  0.000000  0.000000      1.000000
  0.000000  0.125000  0.000000      2.000000
  0.166667  0.125000  0.000000      4.000000
  0.333333  0.125000  0.000000      4.000000
  0.500000  0.125000  0.000000      2.000000
  0.000000  0.250000  0.000000      2.000000
  0.166667  0.250000  0.000000      4.000000
  0.333333  0.250000  0.000000      4.000000
  0.500000  0.250000  0.000000      2.000000
  0.000000  0.375000  0.000000      2.000000
  0.166667  0.375000  0.000000      4.000000
  0.333333  0.375000  0.000000      4.000000
  0.500000  0.375000  0.000000      2.000000
  0.000000  0.500000  0.000000      1.000000
  0.166667  0.500000  0.000000      2.000000
  0.333333  0.500000  0.000000      2.000000
  0.500000  0.500000  0.000000      1.000000
  0.000000  0.000000  0.333333      2.000000
  0.166667  0.000000  0.333333      4.000000
  0.333333  0.000000  0.333333      4.000000
  0.500000  0.000000  0.333333      2.000000
  0.000000  0.125000  0.333333      4.000000
  0.166667  0.125000  0.333333      8.000000
  0.333333  0.125000  0.333333      8.000000
  0.500000  0.125000  0.333333      4.000000
  0.000000  0.250000  0.333333      4.000000
  0.166667  0.250000  0.333333      8.000000
  0.333333  0.250000  0.333333      8.000000
  0.500000  0.250000  0.333333      4.000000
  0.000000  0.375000  0.333333      4.000000
  0.166667  0.375000  0.333333      8.000000
  0.333333  0.375000  0.333333      8.000000
  0.500000  0.375000  0.333333      4.000000
  0.000000  0.500000  0.333333      2.000000
  0.166667  0.500000  0.333333      4.000000
  0.333333  0.500000  0.333333      4.000000
  0.500000  0.500000  0.333333      2.000000
 
 Following cartesian coordinates:
            Coordinates               Weight
  0.000000  0.000000  0.000000      1.000000
  0.046053  0.000000  0.000000      2.000000
  0.092106  0.000000  0.000000      2.000000
  0.138159  0.000000  0.000000      1.000000
  0.000000  0.039791  0.000000      2.000000
  0.046053  0.039791  0.000000      4.000000
  0.092106  0.039791  0.000000      4.000000
  0.138159  0.039791  0.000000      2.000000
  0.000000  0.079581  0.000000      2.000000
  0.046053  0.079581  0.000000      4.000000
  0.092106  0.079581  0.000000      4.000000
  0.138159  0.079581  0.000000      2.000000
  0.000000  0.119372  0.000000      2.000000
  0.046053  0.119372  0.000000      4.000000
  0.092106  0.119372  0.000000      4.000000
  0.138159  0.119372  0.000000      2.000000
  0.000000  0.159163  0.000000      1.000000
  0.046053  0.159163  0.000000      2.000000
  0.092106  0.159163  0.000000      2.000000
  0.138159  0.159163  0.000000      1.000000
  0.000000  0.000000  0.042056      2.000000
  0.046053  0.000000  0.042056      4.000000
  0.092106  0.000000  0.042056      4.000000
  0.138159  0.000000  0.042056      2.000000
  0.000000  0.039791  0.042056      4.000000
  0.046053  0.039791  0.042056      8.000000
  0.092106  0.039791  0.042056      8.000000
  0.138159  0.039791  0.042056      4.000000
  0.000000  0.079581  0.042056      4.000000
  0.046053  0.079581  0.042056      8.000000
  0.092106  0.079581  0.042056      8.000000
  0.138159  0.079581  0.042056      4.000000
  0.000000  0.119372  0.042056      4.000000
  0.046053  0.119372  0.042056      8.000000
  0.092106  0.119372  0.042056      8.000000
  0.138159  0.119372  0.042056      4.000000
  0.000000  0.159163  0.042056      2.000000
  0.046053  0.159163  0.042056      4.000000
  0.092106  0.159163  0.042056      4.000000
  0.138159  0.159163  0.042056      2.000000
 


--------------------------------------------------------------------------------------------------------




 Dimension of arrays:
   k-points           NKPTS =     40   k-points in BZ     NKDIM =     40   number of bands    NBANDS=     32
   number of dos      NEDOS =    301   number of ions     NIONS =      6
   non local maximal  LDIM  =      4   non local SUM 2l+1 LMDIM =      8
   total plane-waves  NPLWV =  40320
   max r-space proj   IRMAX =   3377   max aug-charges    IRDMAX=  17612
   dimension x,y,z NGX =    28 NGY =   24 NGZ =   60
   dimension x,y,z NGXF=    56 NGYF=   48 NGZF=  120
   support grid    NGXF=    56 NGYF=   48 NGZF=  120
   ions per type =               2   2   2
   NGX,Y,Z   is equivalent  to a cutoff of  12.86, 12.70, 12.58 a.u.
   NGXF,Y,Z  is equivalent  to a cutoff of  25.72, 25.40, 25.17 a.u.

 SYSTEM =  unknown system                          
 POSCAR =  Al2 Cl2 O2                              

 Startparameter for this run:
   NWRITE =      2    write-flag & timer
   PREC   = accura    normal or accurate (medium, high low for compatibility)
   ISTART =      0    job   : 0-new  1-cont  2-samecut
   ICHARG =      2    charge: 1-file 2-atom 10-const
   ISPIN  =      2    spin polarized calculation?
   LNONCOLLINEAR =      F non collinear calculations
   LSORBIT =      F    spin-orbit coupling
   INIWAV =      1    electr: 0-lowe 1-rand  2-diag
   LASPH  =      T    aspherical Exc in radial PAW
 Electronic Relaxation 1
   ENCUT  =  520.0 eV  38.22 Ry    6.18 a.u.   6.73  5.84 14.74*2*pi/ulx,y,z
   ENINI  =  520.0     initial cutoff
   ENAUG  =  605.4 eV  augmentation charge cutoff
   NELM   =    100;   NELMIN=  2; NELMDL= -5     # of ELM steps 
   EDIFF  = 0.3E-03   stopping-criterion for ELM
   LREAL  =      T    real-space projection
   NLSPLINE    = F    spline interpolate recip. space projectors
   LCOMPAT=      F    compatible to vasp.4.4
   GGA_COMPAT  = T    GGA compatible to vasp.4.4-vasp.4.6
   LMAXPAW     = -100 max onsite density
   LMAXMIX     =    2 max onsite mixed and CHGCAR
   VOSKOWN=      0    Vosko Wilk Nusair interpolation
   ROPT   =   -0.00025  -0.00025  -0.00025
 Ionic relaxation
   EDIFFG = 0.3E-02   stopping-criterion for IOM
   NSW    =     99    number of steps for IOM
   NBLOCK =      1;   KBLOCK =     99    inner block; outer block 
   IBRION =      2    ionic relax: 0-MD 1-quasi-New 2-CG
   NFREE  =      1    steps in history (QN), initial steepest desc. (CG)
   ISIF   =      3    stress and relaxation
   IWAVPR =     11    prediction:  0-non 1-charg 2-wave 3-comb
   ISYM   =      2    0-nonsym 1-usesym 2-fastsym
   LCORR  =      T    Harris-Foulkes like correction to forces

   POTIM  = 0.5000    time-step for ionic-motion
   TEIN   =    0.0    initial temperature
   TEBEG  =    0.0;   TEEND  =   0.0 temperature during run
   SMASS  =  -3.00    Nose mass-parameter (am)
   estimated Nose-frequenzy (Omega)   =  0.10E-29 period in steps = 0.13E+47 mass=  -0.299E-27a.u.
   SCALEE = 1.0000    scale energy and forces
   NPACO  =    256;   APACO  = 10.0  distance and # of slots for P.C.
   PSTRESS=    0.0 pullay stress

  Mass of Ions in am
   POMASS =  26.98 35.45 16.00
  Ionic Valenz
   ZVAL   =   3.00  7.00  6.00
  Atomic Wigner-Seitz radii
   RWIGS  =  -1.00 -1.00 -1.00
  virtual crystal weights 
   VCA    =   1.00  1.00  1.00
   NELECT =      32.0000    total number of electrons
   NUPDOWN=      -1.0000    fix difference up-down

 DOS related values:
   EMIN   =  10.00;   EMAX   =-10.00  energy-range for DOS
   EFERMI =   0.00;   METHOD = LEGACY      
   ISMEAR =    -5;   SIGMA  =   0.05  broadening in eV -4-tet -1-fermi 0-gaus

 Electronic relaxation 2 (details)
   IALGO  =     68    algorithm
   LDIAG  =      T    sub-space diagonalisation (order eigenvalues)
   LSUBROT=      F    optimize rotation matrix (better conditioning)
   TURBO    =      0    0=normal 1=particle mesh
   IRESTART =      0    0=no restart 2=restart with 2 vectors
   NREBOOT  =      0    no. of reboots
   NMIN     =      0    reboot dimension
   EREF     =   0.00    reference energy to select bands
   IMIX   =      4    mixing-type and parameters
     AMIX     =   0.40;   BMIX     =  1.00
     AMIX_MAG =   1.60;   BMIX_MAG =  1.00
     AMIN     =   0.10
     WC   =   100.;   INIMIX=   1;  MIXPRE=   1;  MAXMIX= -45

 Intra band minimization:
   WEIMIN = 0.0010     energy-eigenvalue tresh-hold
   EBREAK =  0.23E-05  absolut break condition
   DEPER  =   0.30     relativ break condition  

   TIME   =   0.40     timestep for ELM

  volume/ion in A,a.u.               =      15.02       101.35
  Fermi-wavevector in a.u.,A,eV,Ry     =   1.159312  2.190782 18.286288  1.344004
  Thomas-Fermi vector in A             =   2.295906
 
 Write flags
   LWAVE        =      F    write WAVECAR
   LDOWNSAMPLE  =      F    k-point downsampling of WAVECAR
   LCHARG       =      T    write CHGCAR
   LVTOT        =      F    write LOCPOT, total local potential
   LVHAR        =      F    write LOCPOT, Hartree potential only
   WRT_POTENTIAL= false  ! write potential to hdf5 file
   LELF         =      F    write electronic localiz. function (ELF)
   LORBIT       =     11    0 simple, 1 ext, 2 COOP (PROOUT), +10 PAW based schemes


 Dipole corrections
   LMONO      =      F    monopole corrections only (constant potential shift)
   LDIPOL     =      F    correct potential (dipole corrections)
   IDIPOL     =      0    1-x, 2-y, 3-z, 4-all directions 
   EPSILON    =  1.0000000 bulk dielectric constant
   LVACPOTAV  =      F  vacuum potentials using an averaging scheme for the charge density
   VACPOTFLAT =  0.1000000 required flatness to determine vacuum potential
 Exchange correlation treatment:
   GGA     = PE    functional components
   XC_C    = 1    coefficients multiplying the functional components
   LIBXC   =     F    Libxc                    
   VOSKOWN =     0    Vosko Wilk Nusair interpolation
   LHFCALC =     F    Hartree Fock is set to
   LHFONE  =     F    Hartree Fock one center treatment
   AEXX    =    0.0000 exact exchange contribution

 Parameters of functionals:
   PE:
     No parameter
 
 Van der Waals corrections
   IVDW    =     0    specifies the selected vdW correction

 Linear response parameters
   LEPSILON=     F    determine dielectric tensor
   LRPA    =     F    only Hartree local field effects (RPA)
   LNABLA  =     F    use nabla operator in PAW spheres
   LVEL    =     F    velocity operator in full k-point grid
   CSHIFT  =0.1000    complex shift for real part using Kramers Kronig
   OMEGAMAX=  -1.0    maximum frequency
   DEG_THRESHOLD= 0.2000000E-02 threshold for treating states as degnerate
   RTIME   =   -0.100 relaxation time in fs
  (WPLASMAI=    0.000 imaginary part of plasma frequency in eV, 0.658/RTIME)
   DFIELD  = 0.0000000 0.0000000 0.0000000 field for delta impulse in time
 
  Optional k-point grid parameters
   LKPOINTS_OPT  =     F    use optional k-point grid
   KPOINTS_OPT_MODE=     1    mode for optional k-point grid
 
 Orbital magnetization related:
   ORBITALMAG=     F  switch on orbital magnetization
   LCHIMAG   =     F  perturbation theory with respect to B field
   DQ        =  0.001000  dq finite difference perturbation B field
   LLRAUG    =     F  two centre corrections for induced B field
   LBONE     =     F  B-component reconstruction in AE one-centre
   LVGVCALC  =     T  calculate vGv susceptibility
   LVGVAPPL  =     F  apply vGv susceptibility instead of pGv for G=0

 Random number generation:
   RANDOM_GENERATOR = DEFAULT
   PCG_SEED         = not used


--------------------------------------------------------------------------------------------------------


 conjugate gradient relaxation of ions
 charge density and potential will be updated during run
 spin polarized calculation
 RMM-DIIS sequential band-by-band and
  variant of blocked Davidson during initial phase
 perform sub-space diagonalisation
    before iterative eigenvector-optimisation
 modified Broyden-mixing scheme, WC =      100.0
 initial mixing is a Kerker type mixing with AMIX =  0.4000 and BMIX =      1.0000
 Hartree-type preconditioning will be used
 using additional bands           16
 real space projection scheme for non local part
 use partial core corrections
 calculate Harris-corrections to forces 
   (improved forces if not selfconsistent)
 use gradient corrections 
 use of overlap-Matrix (Vanderbilt PP)
 Fermi weights with tetrahedron method with Bloechl corrections


--------------------------------------------------------------------------------------------------------


  energy-cutoff  :      520.00
  volume of cell :       90.11
      direct lattice vectors                 reciprocal lattice vectors
     3.619023340  0.000000000  0.000000000     0.276317643  0.000000000  0.000000000
     0.000000000  3.141440150  0.000000000     0.000000000  0.318325339  0.000000000
     0.000000000  0.000000000  7.925986600     0.000000000  0.000000000  0.126167258

  length of vectors
     3.619023340  3.141440150  7.925986600     0.276317643  0.318325339  0.126167258


 
 k-points in units of 2pi/SCALE and weight: pymatgen with grid density = 1057 / numb
   0.00000000  0.00000000  0.00000000       0.007
   0.04605294  0.00000000  0.00000000       0.014
   0.09210588  0.00000000  0.00000000       0.014
   0.13815882  0.00000000  0.00000000       0.007
   0.00000000  0.03979067  0.00000000       0.014
   0.04605294  0.03979067  0.00000000       0.028
   0.09210588  0.03979067  0.00000000       0.028
   0.13815882  0.03979067  0.00000000       0.014
   0.00000000  0.07958133  0.00000000       0.014
   0.04605294  0.07958133  0.00000000       0.028
   0.09210588  0.07958133  0.00000000       0.028
   0.13815882  0.07958133  0.00000000       0.014
   0.00000000  0.11937200  0.00000000       0.014
   0.04605294  0.11937200  0.00000000       0.028
   0.09210588  0.11937200  0.00000000       0.028
   0.13815882  0.11937200  0.00000000       0.014
   0.00000000  0.15916267  0.00000000       0.007
   0.04605294  0.15916267  0.00000000       0.014
   0.09210588  0.15916267  0.00000000       0.014
   0.13815882  0.15916267  0.00000000       0.007
   0.00000000  0.00000000  0.04205575       0.014
   0.04605294  0.00000000  0.04205575       0.028
   0.09210588  0.00000000  0.04205575       0.028
   0.13815882  0.00000000  0.04205575       0.014
   0.00000000  0.03979067  0.04205575       0.028
   0.04605294  0.03979067  0.04205575       0.056
   0.09210588  0.03979067  0.04205575       0.056
   0.13815882  0.03979067  0.04205575       0.028
   0.00000000  0.07958133  0.04205575       0.028
   0.04605294  0.07958133  0.04205575       0.056
   0.09210588  0.07958133  0.04205575       0.056
   0.13815882  0.07958133  0.04205575       0.028
   0.00000000  0.11937200  0.04205575       0.028
   0.04605294  0.11937200  0.04205575       0.056
   0.09210588  0.11937200  0.04205575       0.056
   0.13815882  0.11937200  0.04205575       0.028
   0.00000000  0.15916267  0.04205575       0.014
   0.04605294  0.15916267  0.04205575       0.028
   0.09210588  0.15916267  0.04205575       0.028
   0.13815882  0.15916267  0.04205575       0.014
 
 k-points in reciprocal lattice and weights: pymatgen with grid density = 1057 / numb
   0.00000000  0.00000000  0.00000000       0.007
   0.16666667  0.00000000  0.00000000       0.014
   0.33333333  0.00000000  0.00000000       0.014
   0.50000000  0.00000000  0.00000000       0.007
   0.00000000  0.12500000  0.00000000       0.014
   0.16666667  0.12500000  0.00000000       0.028
   0.33333333  0.12500000  0.00000000       0.028
   0.50000000  0.12500000  0.00000000       0.014
   0.00000000  0.25000000  0.00000000       0.014
   0.16666667  0.25000000  0.00000000       0.028
   0.33333333  0.25000000  0.00000000       0.028
   0.50000000  0.25000000  0.00000000       0.014
   0.00000000  0.37500000  0.00000000       0.014
   0.16666667  0.37500000  0.00000000       0.028
   0.33333333  0.37500000  0.00000000       0.028
   0.50000000  0.37500000  0.00000000       0.014
   0.00000000  0.50000000  0.00000000       0.007
   0.16666667  0.50000000  0.00000000       0.014
   0.33333333  0.50000000  0.00000000       0.014
   0.50000000  0.50000000  0.00000000       0.007
   0.00000000  0.00000000  0.33333333       0.014
   0.16666667  0.00000000  0.33333333       0.028
   0.33333333  0.00000000  0.33333333       0.028
   0.50000000  0.00000000  0.33333333       0.014
   0.00000000  0.12500000  0.33333333       0.028
   0.16666667  0.12500000  0.33333333       0.056
   0.33333333  0.12500000  0.33333333       0.056
   0.50000000  0.12500000  0.33333333       0.028
   0.00000000  0.25000000  0.33333333       0.028
   0.16666667  0.25000000  0.33333333       0.056
   0.33333333  0.25000000  0.33333333       0.056
   0.50000000  0.25000000  0.33333333       0.028
   0.00000000  0.37500000  0.33333333       0.028
   0.16666667  0.37500000  0.33333333       0.056
   0.33333333  0.37500000  0.33333333       0.056
   0.50000000  0.37500000  0.33333333       0.028
   0.00000000  0.50000000  0.33333333       0.014
   0.16666667  0.50000000  0.33333333       0.028
   0.33333333  0.50000000  0.33333333       0.028
   0.50000000  0.50000000  0.33333333       0.014
 
 position of ions in fractional coordinates (direct lattice) 
   0.75000000  0.25000000  0.89637342
   0.25000000  0.75000000  0.10362658
   0.75000000  0.75000000  0.68555088
   0.25000000  0.25000000  0.31444912
   0.25000000  0.25000000  0.95138875
   0.75000000  0.75000000  0.04861125
 
 position of ions in cartesian coordinates  (Angst):
   2.71426751  0.78536004  7.10464372
   0.90475584  2.35608011  0.82134288
   2.71426751  2.35608011  5.43366709
   0.90475584  0.78536004  2.49231951
   0.90475584  0.78536004  7.54069448
   2.71426751  2.35608011  0.38529212
 


--------------------------------------------------------------------------------------------------------


 k-point     1 :   0.0000 0.0000 0.0000  plane waves:    2415
 k-point     2 :   0.1667 0.0000 0.0000  plane waves:    2411
 k-point     3 :   0.3333 0.0000 0.0000  plane waves:    2430
 k-point     4 :   0.5000 0.0000 0.0000  plane waves:    2418
 k-point     5 :   0.0000 0.1250 0.0000  plane waves:    2417
 k-point     6 :   0.1667 0.1250 0.0000  plane waves:    2431
 k-point     7 :   0.3333 0.1250 0.0000  plane waves:    2421
 k-point     8 :   0.5000 0.1250 0.0000  plane waves:    2428
 k-point     9 :   0.0000 0.2500 0.0000  plane waves:    2432
 k-point    10 :   0.1667 0.2500 0.0000  plane waves:    2420
 k-point    11 :   0.3333 0.2500 0.0000  plane waves:    2416
 k-point    12 :   0.5000 0.2500 0.0000  plane waves:    2434
 k-point    13 :   0.0000 0.3750 0.0000  plane waves:    2432
 k-point    14 :   0.1667 0.3750 0.0000  plane waves:    2433
 k-point    15 :   0.3333 0.3750 0.0000  plane waves:    2423
 k-point    16 :   0.5000 0.3750 0.0000  plane waves:    2428
 k-point    17 :   0.0000 0.5000 0.0000  plane waves:    2460
 k-point    18 :   0.1667 0.5000 0.0000  plane waves:    2458
 k-point    19 :   0.3333 0.5000 0.0000  plane waves:    2412
 k-point    20 :   0.5000 0.5000 0.0000  plane waves:    2404
 k-point    21 :   0.0000 0.0000 0.3333  plane waves:    2422
 k-point    22 :   0.1667 0.0000 0.3333  plane waves:    2426
 k-point    23 :   0.3333 0.0000 0.3333  plane waves:    2415
 k-point    24 :   0.5000 0.0000 0.3333  plane waves:    2426
 k-point    25 :   0.0000 0.1250 0.3333  plane waves:    2422
 k-point    26 :   0.1667 0.1250 0.3333  plane waves:    2418
 k-point    27 :   0.3333 0.1250 0.3333  plane waves:    2416
 k-point    28 :   0.5000 0.1250 0.3333  plane waves:    2434
 k-point    29 :   0.0000 0.2500 0.3333  plane waves:    2428
 k-point    30 :   0.1667 0.2500 0.3333  plane waves:    2423
 k-point    31 :   0.3333 0.2500 0.3333  plane waves:    2428
 k-point    32 :   0.5000 0.2500 0.3333  plane waves:    2430
 k-point    33 :   0.0000 0.3750 0.3333  plane waves:    2441
 k-point    34 :   0.1667 0.3750 0.3333  plane waves:    2429
 k-point    35 :   0.3333 0.3750 0.3333  plane waves:    2432
 k-point    36 :   0.5000 0.3750 0.3333  plane waves:    2422
 k-point    37 :   0.0000 0.5000 0.3333  plane waves:    2442
 k-point    38 :   0.1667 0.5000 0.3333  plane waves:    2436
 k-point    39 :   0.3333 0.5000 0.3333  plane waves:    2422
 k-point    40 :   0.5000 0.5000 0.3333  plane waves:    2412

 maximum and minimum number of plane-waves per node :      2460     2404

 maximum number of plane-waves:      2460
 maximum index in each direction: 
   IXMAX=    6   IYMAX=    5   IZMAX=   14
   IXMIN=   -7   IYMIN=   -6   IZMIN=  -15


 serial   3D FFT for wavefunctions
 parallel 3D FFT for charge:
    minimum data exchange during FFTs selected (reduces bandwidth)


 total amount of memory used by VASP MPI-rank0    44220. kBytes
=======================================================================

   base      :      30000. kBytes
   nonlr-proj:       1526. kBytes
   fftplans  :        926. kBytes
   grid      :       5302. kBytes
   one-center:         36. kBytes
   wavefun   :       6430. kBytes
 
     INWAV:  cpu time      0.0000: real time      0.0002
 Broyden mixing: mesh for mixing (old mesh)
   NGX = 13   NGY = 11   NGZ = 29
  (NGX  = 56   NGY  = 48   NGZ  =120)
  gives a total of   4147 points

 initial charge density was supplied:
 charge density of overlapping atoms calculated
 number of electron      32.0000000 magnetization       0.0000000
 keeping initial charge density in first step


--------------------------------------------------------------------------------------------------------


 Maximum index for non-local projection operator         3218
 Maximum index for augmentation-charges         1354 (set IRDMAX)


--------------------------------------------------------------------------------------------------------


 First call to EWALD:  gamma=   0.395
 Maximum number of real-space cells 3x 4x 2
 Maximum number of reciprocal cells 2x 2x 4

    FEWALD:  cpu time      0.0005: real time      0.0006


--------------------------------------- Ionic step        1  -------------------------------------------




--------------------------------------- Iteration      1(   1)  ---------------------------------------


    POTLOK:  cpu time      0.0187: real time      0.0194
    SETDIJ:  cpu time      0.1035: real time      0.1041
     EDDAV:  cpu time      0.9852: real time      0.9945
 BZINTS: Fermi energy:   13.056202;   32.000000 electrons
         Band energy: 0.902566E+01;  BLOECHL correction:   -0.086717
       DOS:  cpu time      0.0092: real time      0.0094
    --------------------------------------------
      LOOP:  cpu time      1.1167: real time      1.1274

 eigenvalue-minimisations  :  5120
 total energy-change (2. order) : 0.1331406E+03  (-0.1485763E+04)
 number of electron      32.0000000 magnetization       0.0000000
 augmentation part       32.0000000 magnetization       0.0000000

 Free energy of the ion-electron system (eV)
  ---------------------------------------------------
  alpha Z        PSCENC =        37.07979294
  Ewald energy   TEWEN  =     -1171.08818347
  -Hartree energ DENC   =      -638.23119128
  -exchange      EXHF   =         0.00000000
  -V(xc)+E(xc)   XCENC  =        45.13099277
  PAW double counting   =       960.10853058     -900.12498463
  entropy T*S    EENTRO =         0.00000000
  eigenvalues    EBANDS =         9.02565901
  atomic energy  EATOM  =      1791.23999415
  Solvation  Ediel_sol  =         0.00000000
  ---------------------------------------------------
  free energy    TOTEN  =       133.14061006 eV

  energy without entropy =      133.14061006  energy(sigma->0) =      133.14061006


--------------------------------------------------------------------------------------------------------




--------------------------------------- Iteration      1(   2)  ---------------------------------------


     EDDAV:  cpu time      1.3738: real time      1.3920
 BZINTS: Fermi energy:    2.912236;   32.000000 electrons
         Band energy:-0.154840E+03;  BLOECHL correction:    0.000000
       DOS:  cpu time      0.0064: real time      0.0065
    --------------------------------------------
      LOOP:  cpu time      1.3802: real time      1.3985

 eigenvalue-minimisations  :  7440
 total energy-change (2. order) :-0.1638659E+03  (-0.1529099E+03)
 number of electron      32.0000000 magnetization       0.0000000
 augmentation part       32.0000000 magnetization       0.0000000

 Free energy of the ion-electron system (eV)
  ---------------------------------------------------
  alpha Z        PSCENC =        37.07979294
  Ewald energy   TEWEN  =     -1171.08818347
  -Hartree energ DENC   =      -638.23119128
  -exchange      EXHF   =         0.00000000
  -V(xc)+E(xc)   XCENC  =        45.13099277
  PAW double counting   =       960.10853058     -900.12498463
  entropy T*S    EENTRO =         0.00000000
  eigenvalues    EBANDS =      -154.84026756
  atomic energy  EATOM  =      1791.23999415
  Solvation  Ediel_sol  =         0.00000000
  ---------------------------------------------------
  free energy    TOTEN  =       -30.72531651 eV

  energy without entropy =      -30.72531651  energy(sigma->0) =      -30.72531651


--------------------------------------------------------------------------------------------------------




--------------------------------------- Iteration      1(   3)  ---------------------------------------


     EDDAV:  cpu time      1.2328: real time      1.2521
 BZINTS: Fermi energy:    2.380018;   32.000000 electrons
         Band energy:-0.162763E+03;  BLOECHL correction:    0.000000
       DOS:  cpu time      0.0046: real time      0.0047
    --------------------------------------------
      LOOP:  cpu time      1.2374: real time      1.2568

 eigenvalue-minimisations  :  6560
 total energy-change (2. order) :-0.7922502E+01  (-0.7902551E+01)
 number of electron      32.0000000 magnetization       0.0000000
 augmentation part       32.0000000 magnetization       0.0000000

 Free energy of the ion-electron system (eV)
  ---------------------------------------------------
  alpha Z        PSCENC =        37.07979294
  Ewald energy   TEWEN  =     -1171.08818347
  -Hartree energ DENC   =      -638.23119128
  -exchange      EXHF   =         0.00000000
  -V(xc)+E(xc)   XCENC  =        45.13099277
  PAW double counting   =       960.10853058     -900.12498463
  entropy T*S    EENTRO =         0.00000000
  eigenvalues    EBANDS =      -162.76276937
  atomic energy  EATOM  =      1791.23999415
  Solvation  Ediel_sol  =         0.00000000
  ---------------------------------------------------
  free energy    TOTEN  =       -38.64781832 eV

  energy without entropy =      -38.64781832  energy(sigma->0) =      -38.64781832


--------------------------------------------------------------------------------------------------------




--------------------------------------- Iteration      1(   4)  ---------------------------------------


     EDDAV:  cpu time      1.3050: real time      1.3224
 BZINTS: Fermi energy:    2.335514;   32.000000 electrons
         Band energy:-0.162836E+03;  BLOECHL correction:    0.000000
       DOS:  cpu time      0.0045: real time      0.0046
    --------------------------------------------
      LOOP:  cpu time      1.3096: real time      1.3270

 eigenvalue-minimisations  :  7008
 total energy-change (2. order) :-0.7313534E-01  (-0.7313080E-01)
 number of electron      32.0000000 magnetization       0.0000000
 augmentation part       32.0000000 magnetization       0.0000000

 Free energy of the ion-electron system (eV)
  ---------------------------------------------------
  alpha Z        PSCENC =        37.07979294
  Ewald energy   TEWEN  =     -1171.08818347
  -Hartree energ DENC   =      -638.23119128
  -exchange      EXHF   =         0.00000000
  -V(xc)+E(xc)   XCENC  =        45.13099277
  PAW double counting   =       960.10853058     -900.12498463
  entropy T*S    EENTRO =         0.00000000
  eigenvalues    EBANDS =      -162.83590471
  atomic energy  EATOM  =      1791.23999415
  Solvation  Ediel_sol  =         0.00000000
  ---------------------------------------------------
  free energy    TOTEN  =       -38.72095366 eV

  energy without entropy =      -38.72095366  energy(sigma->0) =      -38.72095366


--------------------------------------------------------------------------------------------------------




--------------------------------------- Iteration      1(   5)  ---------------------------------------


     EDDAV:  cpu time      1.2640: real time      1.2743
 BZINTS: Fermi energy:    2.323605;   32.000000 electrons
         Band energy:-0.162837E+03;  BLOECHL correction:    0.000000
       DOS:  cpu time      0.0046: real time      0.0047
    CHARGE:  cpu time      0.0518: real time      0.0523
    MIXING:  cpu time      0.0014: real time      0.0015
    --------------------------------------------
      LOOP:  cpu time      1.3218: real time      1.3329

 eigenvalue-minimisations  :  6912
 total energy-change (2. order) :-0.1372833E-02  (-0.1372825E-02)
 number of electron      32.0000002 magnetization      -0.0000000
 augmentation part       -0.3401909 magnetization      -0.0000054

 Broyden mixing:
  rms(total) = 0.10977E+01    rms(broyden)= 0.10974E+01
  rms(prec ) = 0.16697E+01
  weight for this iteration     100.00

 Free energy of the ion-electron system (eV)
  ---------------------------------------------------
  alpha Z        PSCENC =        37.07979294
  Ewald energy   TEWEN  =     -1171.08818347
  -Hartree energ DENC   =      -638.23119128
  -exchange      EXHF   =         0.00000000
  -V(xc)+E(xc)   XCENC  =        45.13099277
  PAW double counting   =       960.10853058     -900.12498463
  entropy T*S    EENTRO =         0.00000000
  eigenvalues    EBANDS =      -162.83727754
  atomic energy  EATOM  =      1791.23999415
  Solvation  Ediel_sol  =         0.00000000
  ---------------------------------------------------
  free energy    TOTEN  =       -38.72232649 eV

  energy without entropy =      -38.72232649  energy(sigma->0) =      -38.72232649


--------------------------------------------------------------------------------------------------------




--------------------------------------- Iteration      1(   6)  ---------------------------------------


    POTLOK:  cpu time      0.0186: real time      0.0187
    SETDIJ:  cpu time      0.1191: real time      0.1195
    EDDIAG:  cpu time      0.1710: real time      0.1722
  RMM-DIIS:  cpu time      0.8012: real time      0.8067
    ORTHCH:  cpu time      0.0139: real time      0.0140
 BZINTS: Fermi energy:    2.389917;   32.000000 electrons
         Band energy:-0.117275E+03;  BLOECHL correction:    0.000000
       DOS:  cpu time      0.0068: real time      0.0068
    CHARGE:  cpu time      0.0508: real time      0.0511
    MIXING:  cpu time      0.0014: real time      0.0014
    --------------------------------------------
      LOOP:  cpu time      1.1828: real time      1.1905

 eigenvalue-minimisations  :  5120
 total energy-change (2. order) : 0.3535798E+01  (-0.7181805E+00)
 number of electron      32.0000001 magnetization      -0.0000000
 augmentation part       -0.6146449 magnetization      -0.0000149

 Broyden mixing:
  rms(total) = 0.30588E+00    rms(broyden)= 0.30539E+00
  rms(prec ) = 0.42155E+00
  weight for this iteration     100.00

 eigenvalues of (default mixing * dielectric matrix)
  average eigenvalue GAMMA=   0.9499
  0.9499

 Free energy of the ion-electron system (eV)
  ---------------------------------------------------
  alpha Z        PSCENC =        37.07979294
  Ewald energy   TEWEN  =     -1171.08818347
  -Hartree energ DENC   =      -682.19276485
  -exchange      EXHF   =         0.00000000
  -V(xc)+E(xc)   XCENC  =        47.93686388
  PAW double counting   =      1077.50106962    -1018.38792716
  entropy T*S    EENTRO =         0.00000000
  eigenvalues    EBANDS =      -117.27537388
  atomic energy  EATOM  =      1791.23999415
  Solvation  Ediel_sol  =         0.00000000
  ---------------------------------------------------
  free energy    TOTEN  =       -35.18652876 eV

  energy without entropy =      -35.18652876  energy(sigma->0) =      -35.18652876


--------------------------------------------------------------------------------------------------------




--------------------------------------- Iteration      1(   7)  ---------------------------------------


    POTLOK:  cpu time      0.0176: real time      0.0176
    SETDIJ:  cpu time      0.1191: real time      0.1195
    EDDIAG:  cpu time      0.1676: real time      0.1697
  RMM-DIIS:  cpu time      0.7924: real time      0.7969
    ORTHCH:  cpu time      0.0141: real time      0.0142
 BZINTS: Fermi energy:    2.522550;   32.000000 electrons
         Band energy:-0.110694E+03;  BLOECHL correction:    0.000000
       DOS:  cpu time      0.0054: real time      0.0054
    CHARGE:  cpu time      0.0501: real time      0.0503
    MIXING:  cpu time      0.0013: real time      0.0013
    --------------------------------------------
      LOOP:  cpu time      1.1676: real time      1.1750

 eigenvalue-minimisations  :  5120
 total energy-change (2. order) : 0.3675472E-01  (-0.4421392E-01)
 number of electron      32.0000001 magnetization      -0.0000000
 augmentation part       -0.6277930 magnetization      -0.0000090

 Broyden mixing:
  rms(total) = 0.21455E+00    rms(broyden)= 0.21448E+00
  rms(prec ) = 0.27313E+00
  weight for this iteration     100.00

 eigenvalues of (default mixing * dielectric matrix)
  average eigenvalue GAMMA=   1.7242
  1.1206  2.3277

 Free energy of the ion-electron system (eV)
  ---------------------------------------------------
  alpha Z        PSCENC =        37.07979294
  Ewald energy   TEWEN  =     -1171.08818347
  -Hartree energ DENC   =      -689.14368829
  -exchange      EXHF   =         0.00000000
  -V(xc)+E(xc)   XCENC  =        48.43066713
  PAW double counting   =      1108.54435985    -1049.51875051
  entropy T*S    EENTRO =         0.00000000
  eigenvalues    EBANDS =      -110.69396584
  atomic energy  EATOM  =      1791.23999415
  Solvation  Ediel_sol  =         0.00000000
  ---------------------------------------------------
  free energy    TOTEN  =       -35.14977404 eV

  energy without entropy =      -35.14977404  energy(sigma->0) =      -35.14977404


--------------------------------------------------------------------------------------------------------




--------------------------------------- Iteration      1(   8)  ---------------------------------------


    POTLOK:  cpu time      0.0174: real time      0.0176
    SETDIJ:  cpu time      0.1183: real time      0.1187
    EDDIAG:  cpu time      0.1682: real time      0.1696
  RMM-DIIS:  cpu time      0.8018: real time      0.8065
    ORTHCH:  cpu time      0.0141: real time      0.0142
 BZINTS: Fermi energy:    2.558479;   32.000000 electrons
         Band energy:-0.107430E+03;  BLOECHL correction:    0.000000
       DOS:  cpu time      0.0047: real time      0.0048
    CHARGE:  cpu time      0.0499: real time      0.0504
    MIXING:  cpu time      0.0013: real time      0.0013
    --------------------------------------------
      LOOP:  cpu time      1.1757: real time      1.1831

 eigenvalue-minimisations  :  5120
 total energy-change (2. order) : 0.1125983E-01  (-0.1349179E-01)
 number of electron      32.0000001 magnetization      -0.0000000
 augmentation part       -0.6004422 magnetization       0.0000051

 Broyden mixing:
  rms(total) = 0.48448E-01    rms(broyden)= 0.48433E-01
  rms(prec ) = 0.77241E-01
  weight for this iteration     100.00

 eigenvalues of (default mixing * dielectric matrix)
  average eigenvalue GAMMA=   1.5986
  2.5498  1.1230  1.1230

 Free energy of the ion-electron system (eV)
  ---------------------------------------------------
  alpha Z        PSCENC =        37.07979294
  Ewald energy   TEWEN  =     -1171.08818347
  -Hartree energ DENC   =      -692.70512137
  -exchange      EXHF   =         0.00000000
  -V(xc)+E(xc)   XCENC  =        48.74715360
  PAW double counting   =      1136.56926415    -1077.55147622
  entropy T*S    EENTRO =         0.00000000
  eigenvalues    EBANDS =      -107.42993798
  atomic energy  EATOM  =      1791.23999415
  Solvation  Ediel_sol  =         0.00000000
  ---------------------------------------------------
  free energy    TOTEN  =       -35.13851421 eV

  energy without entropy =      -35.13851421  energy(sigma->0) =      -35.13851421


--------------------------------------------------------------------------------------------------------




--------------------------------------- Iteration      1(   9)  ---------------------------------------


    POTLOK:  cpu time      0.0180: real time      0.0182
    SETDIJ:  cpu time      0.1190: real time      0.1194
    EDDIAG:  cpu time      0.1673: real time      0.1686
  RMM-DIIS:  cpu time      0.8024: real time      0.8073
    ORTHCH:  cpu time      0.0144: real time      0.0146
 BZINTS: Fermi energy:    2.583194;   32.000000 electrons
         Band energy:-0.104747E+03;  BLOECHL correction:    0.000000
       DOS:  cpu time      0.0048: real time      0.0049
    CHARGE:  cpu time      0.0507: real time      0.0508
    MIXING:  cpu time      0.0013: real time      0.0013
    --------------------------------------------
      LOOP:  cpu time      1.1778: real time      1.1851

 eigenvalue-minimisations  :  5120
 total energy-change (2. order) : 0.5453996E-02  (-0.2750577E-02)
 number of electron      32.0000001 magnetization      -0.0000000
 augmentation part       -0.6157313 magnetization      -0.0000023

 Broyden mixing:
  rms(total) = 0.16969E-01    rms(broyden)= 0.16951E-01
  rms(prec ) = 0.23622E-01
  weight for this iteration     100.00

 eigenvalues of (default mixing * dielectric matrix)
  average eigenvalue GAMMA=   1.6753
  2.3012  2.3012  1.0494  1.0494

 Free energy of the ion-electron system (eV)
  ---------------------------------------------------
  alpha Z        PSCENC =        37.07979294
  Ewald energy   TEWEN  =     -1171.08818347
  -Hartree energ DENC   =      -695.52387304
  -exchange      EXHF   =         0.00000000
  -V(xc)+E(xc)   XCENC  =        48.93641566
  PAW double counting   =      1142.82280261    -1083.85324367
  entropy T*S    EENTRO =         0.00000000
  eigenvalues    EBANDS =      -104.74676539
  atomic energy  EATOM  =      1791.23999415
  Solvation  Ediel_sol  =         0.00000000
  ---------------------------------------------------
  free energy    TOTEN  =       -35.13306021 eV

  energy without entropy =      -35.13306021  energy(sigma->0) =      -35.13306021


--------------------------------------------------------------------------------------------------------




--------------------------------------- Iteration      1(  10)  ---------------------------------------


    POTLOK:  cpu time      0.0183: real time      0.0186
    SETDIJ:  cpu time      0.1185: real time      0.1197
    EDDIAG:  cpu time      0.1741: real time      0.1762
  RMM-DIIS:  cpu time      0.8116: real time      0.8197
    ORTHCH:  cpu time      0.0139: real time      0.0139
 BZINTS: Fermi energy:    2.572861;   32.000000 electrons
         Band energy:-0.105212E+03;  BLOECHL correction:    0.000000
       DOS:  cpu time      0.0048: real time      0.0048
    --------------------------------------------
      LOOP:  cpu time      1.1411: real time      1.1529

 eigenvalue-minimisations  :  5120
 total energy-change (2. order) : 0.4528173E-04  (-0.2523029E-03)
 number of electron      32.0000001 magnetization      -0.0000000
 augmentation part       -0.6157313 magnetization      -0.0000023

 Free energy of the ion-electron system (eV)
  ---------------------------------------------------
  alpha Z        PSCENC =        37.07979294
  Ewald energy   TEWEN  =     -1171.08818347
  -Hartree energ DENC   =      -695.03064613
  -exchange      EXHF   =         0.00000000
  -V(xc)+E(xc)   XCENC  =        48.90477471
  PAW double counting   =      1139.31264460    -1080.33913385
  entropy T*S    EENTRO =         0.00000000
  eigenvalues    EBANDS =      -105.21225789
  atomic energy  EATOM  =      1791.23999415
  Solvation  Ediel_sol  =         0.00000000
  ---------------------------------------------------
  free energy    TOTEN  =       -35.13301493 eV

  energy without entropy =      -35.13301493  energy(sigma->0) =      -35.13301493


--------------------------------------------------------------------------------------------------------




 average (electrostatic) potential at core
  the test charge radii are     1.0406  0.9406  0.7215
  (the norm of the test charge is              1.0000)
       1 -75.9490       2 -75.9490       3 -91.0581       4 -91.0581       5 -71.2216
       6 -71.2216
 
 
 
 E-fermi :   2.5729     XC(G=0):  -9.4935     alpha+bet :-11.2881

 val. band max:        2.4853926464   @ k =   0.0000   0.5000   0.0000
 cond. band min:       8.3782128096   @ k =   0.0000   0.0000   0.0000
 fundamental gap:      5.8928201632
 Fermi energy:         2.5728607152

 spin component 1

 k-point     1 :       0.0000    0.0000    0.0000
  band No.  band energies     occupation 
      1     -16.5662      1.00000
      2     -13.8882      1.00000
      3     -11.3534      1.00000
      4     -11.3334      1.00000
      5      -3.3759      1.00000
      6      -2.3469      1.00000
      7      -1.4016      1.00000
      8      -0.6568      1.00000
      9       0.1964      1.00000
     10       0.5353      1.00000
     11       1.6681      1.00000
     12       1.9342      1.00000
     13       2.0926      1.00000
     14       2.1842      1.00000
     15       2.2006      1.00000
     16       2.2725      1.00000
     17       8.3782      0.00000
     18       9.5670      0.00000
     19      10.5073      0.00000
     20      11.4294      0.00000
     21      12.4026      0.00000
     22      12.6316      0.00000
     23      13.4880      0.00000
     24      13.6933      0.00000
     25      14.1283      0.00000
     26      14.2386      0.00000
     27      14.4867      0.00000
     28      15.0218      0.00000
     29      16.8827      0.00000
     30      17.2520      0.00000
     31      19.3776      0.00000
     32      20.5290      0.00000

 k-point     2 :       0.1667    0.0000    0.0000
  band No.  band energies     occupation 
      1     -16.4003      1.00000
      2     -14.0681      1.00000
      3     -11.3274      1.00000
      4     -11.2932      1.00000
      5      -3.5218      1.00000
      6      -1.9264      1.00000
      7      -1.2305      1.00000
      8      -1.1821      1.00000
      9       0.0690      1.00000
     10       0.8671      1.00000
     11       1.4705      1.00000
     12       1.5121      1.00000
     13       1.7651      1.00000
     14       2.0589      1.00000
     15       2.2064      1.00000
     16       2.2185      1.00000
     17       8.9811      0.00000
     18       9.9204      0.00000
     19      10.9771      0.00000
     20      11.0367      0.00000
     21      12.5367      0.00000
     22      12.6402      0.00000
     23      13.5654      0.00000
     24      13.9965      0.00000
     25      14.0017      0.00000
     26      14.1042      0.00000
     27      14.9395      0.00000
     28      15.4968      0.00000
     29      16.7432      0.00000
     30      17.3116      0.00000
     31      18.8373      0.00000
     32      19.5933      0.00000

 k-point     3 :       0.3333    0.0000    0.0000
  band No.  band energies     occupation 
      1     -15.9345      1.00000
      2     -14.5759      1.00000
      3     -11.2534      1.00000
      4     -11.2162      1.00000
      5      -3.4675      1.00000
      6      -2.1770      1.00000
      7      -1.2454      1.00000
      8      -0.7386      1.00000
      9       0.2000      1.00000
     10       0.4383      1.00000
     11       0.8299      1.00000
     12       1.0093      1.00000
     13       1.5330      1.00000
     14       1.7583      1.00000
     15       2.2209      1.00000
     16       2.2471      1.00000
     17      10.0127      0.00000
     18      10.4866      0.00000
     19      10.5551      0.00000
     20      11.3954      0.00000
     21      12.5884      0.00000
     22      12.7290      0.00000
     23      13.8519      0.00000
     24      13.9764      0.00000
     25      14.6429      0.00000
     26      14.8801      0.00000
     27      15.1512      0.00000
     28      15.6342      0.00000
     29      17.5171      0.00000
     30      17.5338      0.00000
     31      17.8761      0.00000
     32      18.2764      0.00000

 k-point     4 :       0.5000    0.0000    0.0000
  band No.  band energies     occupation 
      1     -15.2686      1.00000
      2     -15.2686      1.00000
      3     -11.1927      1.00000
      4     -11.1927      1.00000
      5      -2.9982      1.00000
      6      -2.9982      1.00000
      7      -0.5990      1.00000
      8      -0.5990      1.00000
      9       0.0003      1.00000
     10       0.0003      1.00000
     11       0.7882      1.00000
     12       0.7882      1.00000
     13       1.4792      1.00000
     14       1.4792      1.00000
     15       2.2556      1.00000
     16       2.2556      1.00000
     17      10.2796      0.00000
     18      10.2796      0.00000
     19      11.2309      0.00000
     20      11.2309      0.00000
     21      12.7378      0.00000
     22      12.7378      0.00000
     23      14.2349      0.00000
     24      14.2349      0.00000
     25      14.5887      0.00000
     26      14.5887      0.00000
     27      15.5636      0.00000
     28      15.5636      0.00000
     29      17.4766      0.00000
     30      17.4766      0.00000
     31      18.5342      0.00000
     32      18.5347      0.00000

 k-point     5 :       0.0000    0.1250    0.0000
  band No.  band energies     occupation 
      1     -16.4532      1.00000
      2     -13.9589      1.00000
      3     -11.2621      1.00000
      4     -11.2422      1.00000
      5      -3.2387      1.00000
      6      -2.3713      1.00000
      7      -1.4932      1.00000
      8      -0.7083      1.00000
      9       0.0634      1.00000
     10       0.4258      1.00000
     11       1.5292      1.00000
     12       1.5571      1.00000
     13       1.5885      1.00000
     14       2.0089      1.00000
     15       2.0823      1.00000
     16       2.2020      1.00000
     17       8.9738      0.00000
     18      10.2475      0.00000
     19      11.0202      0.00000
     20      11.8790      0.00000
     21      12.2562      0.00000
     22      12.8945      0.00000
     23      13.3245      0.00000
     24      13.5160      0.00000
     25      13.8813      0.00000
     26      14.5963      0.00000
     27      14.7144      0.00000
     28      14.9963      0.00000
     29      16.5120      0.00000
     30      17.0294      0.00000
     31      17.1285      0.00000
     32      20.1643      0.00000

 k-point     6 :       0.1667    0.1250    0.0000
  band No.  band energies     occupation 
      1     -16.2932      1.00000
      2     -14.1181      1.00000
      3     -11.2325      1.00000
      4     -11.2023      1.00000
      5      -3.4674      1.00000
      6      -2.1420      1.00000
      7      -1.2722      1.00000
      8      -1.0521      1.00000
      9       0.1171      1.00000
     10       0.4920      1.00000
     11       1.1409      1.00000
     12       1.5577      1.00000
     13       1.5979      1.00000
     14       1.6971      1.00000
     15       2.0204      1.00000
     16       2.0612      1.00000
     17       9.4617      0.00000
     18      10.6158      0.00000
     19      11.5366      0.00000
     20      11.5962      0.00000
     21      12.2566      0.00000
     22      12.5661      0.00000
     23      13.5198      0.00000
     24      13.7994      0.00000
     25      14.1545      0.00000
     26      14.3376      0.00000
     27      14.8205      0.00000
     28      15.5330      0.00000
     29      16.4390      0.00000
     30      16.7873      0.00000
     31      16.8434      0.00000
     32      19.2965      0.00000

 k-point     7 :       0.3333    0.1250    0.0000
  band No.  band energies     occupation 
      1     -15.8463      1.00000
      2     -14.5751      1.00000
      3     -11.1568      1.00000
      4     -11.1253      1.00000
      5      -3.5206      1.00000
      6      -2.2670      1.00000
      7      -1.7192      1.00000
      8      -0.3039      1.00000
      9      -0.2118      1.00000
     10       0.4504      1.00000
     11       1.0657      1.00000
     12       1.0851      1.00000
     13       1.4769      1.00000
     14       1.5981      1.00000
     15       1.7595      1.00000
     16       1.7720      1.00000
     17      10.4928      0.00000
     18      10.9343      0.00000
     19      11.1146      0.00000
     20      11.7520      0.00000
     21      12.5103      0.00000
     22      12.6165      0.00000
     23      13.7460      0.00000
     24      13.8772      0.00000
     25      14.2193      0.00000
     26      14.6310      0.00000
     27      15.1700      0.00000
     28      15.7463      0.00000
     29      16.8549      0.00000
     30      17.0939      0.00000
     31      17.7273      0.00000
     32      18.5196      0.00000

 k-point     8 :       0.5000    0.1250    0.0000
  band No.  band energies     occupation 
      1     -15.2160      1.00000
      2     -15.2160      1.00000
      3     -11.0994      1.00000
      4     -11.0994      1.00000
      5      -3.0932      1.00000
      6      -3.0932      1.00000
      7      -1.1372      1.00000
      8      -1.1372      1.00000
      9       0.5206      1.00000
     10       0.5206      1.00000
     11       0.8799      1.00000
     12       0.8799      1.00000
     13       1.4196      1.00000
     14       1.4196      1.00000
     15       1.6515      1.00000
     16       1.6515      1.00000
     17      10.7942      0.00000
     18      10.7942      0.00000
     19      11.5178      0.00000
     20      11.5178      0.00000
     21      12.7028      0.00000
     22      12.7028      0.00000
     23      13.6660      0.00000
     24      13.6660      0.00000
     25      14.7413      0.00000
     26      14.7413      0.00000
     27      15.1758      0.00000
     28      15.1758      0.00000
     29      17.7843      0.00000
     30      17.7856      0.00000
     31      18.7826      0.00000
     32      18.7825      0.00000

 k-point     9 :       0.0000    0.2500    0.0000
  band No.  band energies     occupation 
      1     -16.1309      1.00000
      2     -14.1849      1.00000
      3     -11.0235      1.00000
      4     -11.0062      1.00000
      5      -2.8388      1.00000
      6      -2.4973      1.00000
      7      -1.6326      1.00000
      8      -1.1913      1.00000
      9      -0.2865      1.00000
     10       0.0379      1.00000
     11       0.5384      1.00000
     12       0.6542      1.00000
     13       1.2920      1.00000
     14       2.0056      1.00000
     15       2.1980      1.00000
     16       2.2677      1.00000
     17      10.0154      0.00000
     18      10.7841      0.00000
     19      10.9167      0.00000
     20      11.8421      0.00000
     21      13.0185      0.00000
     22      13.1210      0.00000
     23      13.8758      0.00000
     24      14.2974      0.00000
     25      14.4677      0.00000
     26      14.6419      0.00000
     27      14.8680      0.00000
     28      15.2524      0.00000
     29      15.5768      0.00000
     30      16.2086      0.00000
     31      16.8578      0.00000
     32      18.9116      0.00000

 k-point    10 :       0.1667    0.2500    0.0000
  band No.  band energies     occupation 
      1     -15.9896      1.00000
      2     -14.2860      1.00000
      3     -10.9868      1.00000
      4     -10.9670      1.00000
      5      -3.4060      1.00000
      6      -2.3373      1.00000
      7      -1.6881      1.00000
      8      -0.8338      1.00000
      9      -0.5974      1.00000
     10       0.2518      1.00000
     11       0.5377      1.00000
     12       0.8717      1.00000
     13       1.0604      1.00000
     14       1.7384      1.00000
     15       2.0460      1.00000
     16       2.1591      1.00000
     17      10.2291      0.00000
     18      10.8343      0.00000
     19      11.2365      0.00000
     20      12.2510      0.00000
     21      12.5174      0.00000
     22      12.8620      0.00000
     23      14.0178      0.00000
     24      14.0272      0.00000
     25      14.8373      0.00000
     26      14.9263      0.00000
     27      15.1064      0.00000
     28      15.2710      0.00000
     29      15.4473      0.00000
     30      16.2373      0.00000
     31      16.7560      0.00000
     32      18.4829      0.00000

 k-point    11 :       0.3333    0.2500    0.0000
  band No.  band energies     occupation 
      1     -15.6034      1.00000
      2     -14.5989      1.00000
      3     -10.9067      1.00000
      4     -10.8894      1.00000
      5      -3.7973      1.00000
      6      -2.7432      1.00000
      7      -1.9427      1.00000
      8      -0.7833      1.00000
      9       0.0965      1.00000
     10       0.2021      1.00000
     11       0.5327      1.00000
     12       0.7873      1.00000
     13       1.2373      1.00000
     14       1.3599      1.00000
     15       1.7472      1.00000
     16       1.7743      1.00000
     17      10.7249      0.00000
     18      10.8633      0.00000
     19      11.4587      0.00000
     20      12.0084      0.00000
     21      12.0314      0.00000
     22      12.4645      0.00000
     23      13.7922      0.00000
     24      14.0920      0.00000
     25      14.8261      0.00000
     26      15.3942      0.00000
     27      15.4337      0.00000
     28      16.0270      0.00000
     29      16.7228      0.00000
     30      16.8826      0.00000
     31      17.6983      0.00000
     32      18.4367      0.00000

 k-point    12 :       0.5000    0.2500    0.0000
  band No.  band energies     occupation 
      1     -15.0847      1.00000
      2     -15.0847      1.00000
      3     -10.8570      1.00000
      4     -10.8570      1.00000
      5      -3.5506      1.00000
      6      -3.5506      1.00000
      7      -1.3836      1.00000
      8      -1.3836      1.00000
      9       0.2161      1.00000
     10       0.2161      1.00000
     11       1.0036      1.00000
     12       1.0036      1.00000
     13       1.1786      1.00000
     14       1.1786      1.00000
     15       1.4678      1.00000
     16       1.4678      1.00000
     17      10.9623      0.00000
     18      10.9623      0.00000
     19      11.4594      0.00000
     20      11.4594      0.00000
     21      12.1018      0.00000
     22      12.1018      0.00000
     23      13.8464      0.00000
     24      13.8465      0.00000
     25      15.4905      0.00000
     26      15.4905      0.00000
     27      15.7324      0.00000
     28      15.7325      0.00000
     29      17.6507      0.00000
     30      17.6516      0.00000
     31      19.1145      0.00000
     32      19.1156      0.00000

 k-point    13 :       0.0000    0.3750    0.0000
  band No.  band energies     occupation 
      1     -15.6503      1.00000
      2     -14.5771      1.00000
      3     -10.7535      1.00000
      4     -10.7433      1.00000
      5      -2.5698      1.00000
      6      -2.2144      1.00000
      7      -1.9620      1.00000
      8      -1.9050      1.00000
      9      -1.2183      1.00000
     10      -0.6326      1.00000
     11       0.2114      1.00000
     12       0.7056      1.00000
     13       1.1228      1.00000
     14       1.7915      1.00000
     15       2.3997      1.00000
     16       2.4074      1.00000
     17       9.7546      0.00000
     18       9.9993      0.00000
     19      11.5943      0.00000
     20      12.7731      0.00000
     21      12.9241      0.00000
     22      13.4744      0.00000
     23      13.5071      0.00000
     24      14.3393      0.00000
     25      14.8573      0.00000
     26      14.9480      0.00000
     27      15.1500      0.00000
     28      15.3937      0.00000
     29      15.8087      0.00000
     30      16.0990      0.00000
     31      18.5933      0.00000
     32      18.6271      0.00000

 k-point    14 :       0.1667    0.3750    0.0000
  band No.  band energies     occupation 
      1     -15.5442      1.00000
      2     -14.6005      1.00000
      3     -10.7123      1.00000
      4     -10.7041      1.00000
      5      -3.3636      1.00000
      6      -2.3942      1.00000
      7      -2.2820      1.00000
      8      -1.6794      1.00000
      9      -0.9135      1.00000
     10      -0.0063      1.00000
     11       0.3245      1.00000
     12       0.7354      1.00000
     13       1.0644      1.00000
     14       1.7331      1.00000
     15       2.0825      1.00000
     16       2.1919      1.00000
     17       9.9349      0.00000
     18       9.9754      0.00000
     19      11.3634      0.00000
     20      12.1258      0.00000
     21      12.7333      0.00000
     22      13.6588      0.00000
     23      14.1628      0.00000
     24      14.1842      0.00000
     25      14.2687      0.00000
     26      15.0101      0.00000
     27      15.5459      0.00000
     28      15.5741      0.00000
     29      16.4077      0.00000
     30      16.5591      0.00000
     31      18.7038      0.00000
     32      18.9863      0.00000

 k-point    15 :       0.3333    0.3750    0.0000
  band No.  band energies     occupation 
      1     -15.2698      1.00000
      2     -14.7074      1.00000
      3     -10.6279      1.00000
      4     -10.6238      1.00000
      5      -4.1071      1.00000
      6      -3.5015      1.00000
      7      -1.8198      1.00000
      8      -1.3318      1.00000
      9      -0.5409      1.00000
     10      -0.3433      1.00000
     11       0.8269      1.00000
     12       0.8996      1.00000
     13       1.2264      1.00000
     14       1.4240      1.00000
     15       1.7161      1.00000
     16       1.8763      1.00000
     17      10.0586      0.00000
     18      10.2533      0.00000
     19      10.7129      0.00000
     20      11.0668      0.00000
     21      12.7173      0.00000
     22      12.8873      0.00000
     23      13.6518      0.00000
     24      14.2350      0.00000
     25      15.3184      0.00000
     26      15.8886      0.00000
     27      16.3236      0.00000
     28      17.0616      0.00000
     29      17.1011      0.00000
     30      17.5431      0.00000
     31      18.7490      0.00000
     32      18.7954      0.00000

 k-point    16 :       0.5000    0.3750    0.0000
  band No.  band energies     occupation 
      1     -14.9463      1.00000
      2     -14.9463      1.00000
      3     -10.5836      1.00000
      4     -10.5836      1.00000
      5      -4.1559      1.00000
      6      -4.1559      1.00000
      7      -1.1571      1.00000
      8      -1.1571      1.00000
      9      -0.8136      1.00000
     10      -0.8136      1.00000
     11       0.9660      1.00000
     12       0.9660      1.00000
     13       1.4255      1.00000
     14       1.4255      1.00000
     15       1.6251      1.00000
     16       1.6251      1.00000
     17      10.2707      0.00000
     18      10.2707      0.00000
     19      10.5311      0.00000
     20      10.5311      0.00000
     21      12.5463      0.00000
     22      12.5463      0.00000
     23      13.8612      0.00000
     24      13.8612      0.00000
     25      16.1959      0.00000
     26      16.1961      0.00000
     27      16.8452      0.00000
     28      16.8453      0.00000
     29      17.7903      0.00000
     30      17.7906      0.00000
     31      19.5905      0.00000
     32      19.5960      0.00000

[...]
     24      13.6025      0.00000
     25      14.0333      0.00000
     26      14.1750      0.00000
     27      14.5937      0.00000
     28      14.8798      0.00000
     29      15.3195      0.00000
     30      15.4954      0.00000
     31      18.5673      0.00000
     32      18.6989      0.00000

 k-point    34 :       0.1667    0.3750    0.3333
  band No.  band energies     occupation 
      1     -15.6175      1.00000
      2     -14.7282      1.00000
      3     -10.9766      1.00000
      4     -10.8686      1.00000
      5      -3.4436      1.00000
      6      -2.5313      1.00000
      7      -2.3625      1.00000
      8      -1.7732      1.00000
      9      -1.1243      1.00000
     10      -0.2870      1.00000
     11      -0.0205      1.00000
     12       0.5643      1.00000
     13       1.0612      1.00000
     14       1.4129      1.00000
     15       1.8735      1.00000
     16       1.9485      1.00000
     17       9.1418      0.00000
     18       9.6455      0.00000
     19      11.4501      0.00000
     20      12.0434      0.00000
     21      12.3278      0.00000
     22      12.9479      0.00000
     23      13.4754      0.00000
     24      13.6252      0.00000
     25      13.9094      0.00000
     26      14.6274      0.00000
     27      14.6919      0.00000
     28      14.9339      0.00000
     29      15.8637      0.00000
     30      16.2162      0.00000
     31      18.3756      0.00000
     32      18.5594      0.00000

 k-point    35 :       0.3333    0.3750    0.3333
  band No.  band energies     occupation 
      1     -15.3596      1.00000
      2     -14.8307      1.00000
      3     -10.8799      1.00000
      4     -10.8165      1.00000
      5      -4.1700      1.00000
      6      -3.6061      1.00000
      7      -1.9165      1.00000
      8      -1.4195      1.00000
      9      -0.7988      1.00000
     10      -0.5452      1.00000
     11       0.6131      1.00000
     12       0.6356      1.00000
     13       0.9750      1.00000
     14       1.2162      1.00000
     15       1.5474      1.00000
     16       1.6821      1.00000
     17       9.4942      0.00000
     18       9.6087      0.00000
     19      10.7106      0.00000
     20      10.9976      0.00000
     21      12.2794      0.00000
     22      12.4695      0.00000
     23      13.2436      0.00000
     24      13.5260      0.00000
     25      15.0770      0.00000
     26      15.3615      0.00000
     27      15.6111      0.00000
     28      16.0812      0.00000
     29      16.6604      0.00000
     30      17.3808      0.00000
     31      18.0339      0.00000
     32      18.3945      0.00000

 k-point    36 :       0.5000    0.3750    0.3333
  band No.  band energies     occupation 
      1     -15.0559      1.00000
      2     -15.0559      1.00000
      3     -10.8102      1.00000
      4     -10.8102      1.00000
      5      -4.2284      1.00000
      6      -4.2284      1.00000
      7      -1.2703      1.00000
      8      -1.2703      1.00000
      9      -0.9840      1.00000
     10      -0.9840      1.00000
     11       0.6851      1.00000
     12       0.6851      1.00000
     13       1.1115      1.00000
     14       1.1115      1.00000
     15       1.5320      1.00000
     16       1.5320      1.00000
     17       9.6767      0.00000
     18       9.6767      0.00000
     19      10.4809      0.00000
     20      10.4809      0.00000
     21      12.1522      0.00000
     22      12.1522      0.00000
     23      13.3389      0.00000
     24      13.3389      0.00000
     25      15.6251      0.00000
     26      15.6251      0.00000
     27      16.5824      0.00000
     28      16.5824      0.00000
     29      17.1847      0.00000
     30      17.1847      0.00000
     31      18.1678      0.00000
     32      18.1678      0.00000

 k-point    37 :       0.0000    0.5000    0.3333
  band No.  band energies     occupation 
      1     -15.1939      1.00000
      2     -15.1939      1.00000
      3     -10.8466      1.00000
      4     -10.8466      1.00000
      5      -2.4693      1.00000
      6      -2.4693      1.00000
      7      -2.0860      1.00000
      8      -2.0860      1.00000
      9      -1.5735      1.00000
     10      -1.5735      1.00000
     11       0.1015      1.00000
     12       0.1015      1.00000
     13       1.3615      1.00000
     14       1.3615      1.00000
     15       2.2064      1.00000
     16       2.2064      1.00000
     17       9.0831      0.00000
     18       9.0831      0.00000
     19      12.3188      0.00000
     20      12.3188      0.00000
     21      12.6236      0.00000
     22      12.6236      0.00000
     23      13.7532      0.00000
     24      13.7532      0.00000
     25      14.2978      0.00000
     26      14.2978      0.00000
     27      14.3876      0.00000
     28      14.3876      0.00000
     29      15.3208      0.00000
     30      15.3208      0.00000
     31      19.2585      0.00000
     32      19.2756      0.00000

 k-point    38 :       0.1667    0.5000    0.3333
  band No.  band energies     occupation 
      1     -15.1471      1.00000
      2     -15.1471      1.00000
      3     -10.8094      1.00000
      4     -10.8094      1.00000
      5      -3.1583      1.00000
      6      -3.1583      1.00000
      7      -2.2393      1.00000
      8      -2.2393      1.00000
      9      -0.9019      1.00000
     10      -0.9019      1.00000
     11       0.3198      1.00000
     12       0.3198      1.00000
     13       1.3213      1.00000
     14       1.3213      1.00000
     15       1.9192      1.00000
     16       1.9192      1.00000
     17       9.0625      0.00000
     18       9.0625      0.00000
     19      11.6672      0.00000
     20      11.6672      0.00000
     21      12.7407      0.00000
     22      12.7407      0.00000
     23      13.6504      0.00000
     24      13.6504      0.00000
     25      14.3502      0.00000
     26      14.3502      0.00000
     27      14.9996      0.00000
     28      14.9996      0.00000
     29      15.9524      0.00000
     30      15.9524      0.00000
     31      18.8508      0.00000
     32      18.8508      0.00000

 k-point    39 :       0.3333    0.5000    0.3333
  band No.  band energies     occupation 
      1     -15.0504      1.00000
      2     -15.0504      1.00000
      3     -10.7328      1.00000
      4     -10.7328      1.00000
      5      -4.1111      1.00000
      6      -4.1111      1.00000
      7      -1.8310      1.00000
      8      -1.8310      1.00000
      9      -0.7934      1.00000
     10      -0.7934      1.00000
     11       0.6797      1.00000
     12       0.6797      1.00000
     13       1.2584      1.00000
     14       1.2584      1.00000
     15       1.5249      1.00000
     16       1.5249      1.00000
     17       9.1979      0.00000
     18       9.1979      0.00000
     19      10.5573      0.00000
     20      10.5573      0.00000
     21      12.7768      0.00000
     22      12.7768      0.00000
     23      13.2410      0.00000
     24      13.2410      0.00000
     25      15.1854      0.00000
     26      15.1854      0.00000
     27      16.1953      0.00000
     28      16.1953      0.00000
     29      17.0619      0.00000
     30      17.0619      0.00000
     31      18.2824      0.00000
     32      18.2824      0.00000

 k-point    40 :       0.5000    0.5000    0.3333
  band No.  band energies     occupation 
      1     -15.0005      1.00000
      2     -15.0005      1.00000
      3     -10.6934      1.00000
      4     -10.6934      1.00000
      5      -4.4736      1.00000
      6      -4.4736      1.00000
      7      -1.4218      1.00000
      8      -1.4218      1.00000
      9      -1.0641      1.00000
     10      -1.0641      1.00000
     11       0.7122      1.00000
     12       0.7122      1.00000
     13       1.2246      1.00000
     14       1.2246      1.00000
     15       1.4873      1.00000
     16       1.4873      1.00000
     17       9.3799      0.00000
     18       9.3799      0.00000
     19      10.0985      0.00000
     20      10.0985      0.00000
     21      12.5772      0.00000
     22      12.5772      0.00000
     23      13.0885      0.00000
     24      13.0885      0.00000
     25      15.9070      0.00000
     26      15.9070      0.00000
     27      16.8397      0.00000
     28      16.8397      0.00000
     29      16.9209      0.00000
     30      16.9209      0.00000
     31      18.5941      0.00000
     32      18.5941      0.00000


--------------------------------------------------------------------------------------------------------


 soft charge-density along one line, spin component           1
         0         1         2         3         4         5         6         7         8         9
 total charge-density along one line
 
 soft charge-density along one line, spin component           2
         0         1         2         3         4         5         6         7         8         9
 total charge-density along one line
 
 pseudopotential strength for first ion, spin component:           1
  8.545  -0.001   0.000  -0.001  -0.000   0.000  -0.000  -0.000
 -0.001  -0.000   0.000  -0.000  -0.000  -0.000   0.000   0.000
  0.000   0.000   1.971  -0.000  -0.000  -0.016   0.000   0.000
 -0.001  -0.000  -0.000   1.972   0.000   0.000  -0.016  -0.000
 -0.000  -0.000  -0.000   0.000   1.971   0.000  -0.000  -0.016
  0.000  -0.000  -0.016   0.000   0.000  -0.014   0.000  -0.000
 -0.000   0.000   0.000  -0.016  -0.000   0.000  -0.014   0.000
 -0.000   0.000   0.000  -0.000  -0.016  -0.000   0.000  -0.014
 pseudopotential strength for first ion, spin component:           2
  8.545  -0.001   0.000  -0.001  -0.000   0.000  -0.000  -0.000
 -0.001  -0.000   0.000  -0.000  -0.000  -0.000   0.000   0.000
  0.000   0.000   1.971  -0.000  -0.000  -0.016   0.000   0.000
 -0.001  -0.000  -0.000   1.972   0.000   0.000  -0.016  -0.000
 -0.000  -0.000  -0.000   0.000   1.971   0.000  -0.000  -0.016
  0.000  -0.000  -0.016   0.000   0.000  -0.014   0.000  -0.000
 -0.000   0.000   0.000  -0.016  -0.000   0.000  -0.014   0.000
 -0.000   0.000   0.000  -0.000  -0.016  -0.000   0.000  -0.014
 total augmentation occupancy for first ion, spin component:           1
  0.878  -0.781   0.000   0.002   0.000   0.000  -0.026   0.000
 -0.781   1.003   0.000  -0.101   0.000   0.000   0.069   0.000
  0.000   0.000   0.705   0.000   0.000  -0.223   0.000  -0.000
  0.002  -0.101   0.000   0.671   0.000   0.000  -0.205   0.000
  0.000   0.000   0.000   0.000   0.840  -0.000   0.000  -0.292
  0.000   0.000  -0.223   0.000  -0.000   0.081   0.000   0.000
 -0.026   0.069   0.000  -0.205   0.000   0.000   0.072   0.000
  0.000   0.000  -0.000   0.000  -0.292   0.000   0.000   0.117
 total augmentation occupancy for first ion, spin component:           2
  0.000   0.000   0.000   0.000   0.000  -0.000   0.000   0.000
  0.000  -0.000   0.000   0.000   0.000   0.000  -0.000   0.000
  0.000   0.000   0.000   0.000   0.000   0.000   0.000   0.000
  0.000   0.000   0.000   0.000   0.000  -0.000   0.000   0.000
  0.000   0.000   0.000   0.000  -0.000  -0.000   0.000  -0.000
 -0.000   0.000   0.000  -0.000  -0.000  -0.000   0.000  -0.000
  0.000  -0.000   0.000   0.000   0.000   0.000  -0.000   0.000
  0.000   0.000   0.000   0.000  -0.000  -0.000   0.000   0.000


------------------------ aborting loop because EDIFF is reached ----------------------------------------





 total charge

# of ion       s       p       d       tot
------------------------------------------
    1        0.304   0.358   0.000   0.661
    2        0.304   0.358   0.000   0.661
    3        1.602   3.576   0.000   5.178
    4        1.602   3.576   0.000   5.178
    5        1.552   3.605   0.000   5.156
    6        1.552   3.605   0.000   5.156
--------------------------------------------------
tot          6.915  15.077   0.000  21.993



 magnetization (x)

# of ion       s       p       d       tot
------------------------------------------
    1       -0.000  -0.000   0.000  -0.000
    2       -0.000  -0.000   0.000  -0.000
    3        0.000   0.000   0.000   0.000
    4        0.000   0.000   0.000   0.000
    5       -0.000   0.000   0.000  -0.000
    6       -0.000   0.000   0.000  -0.000
--------------------------------------------------
tot         -0.000  -0.000   0.000  -0.000
 
    CHARGE:  cpu time      0.0502: real time      0.0504
    FORLOC:  cpu time      0.0011: real time      0.0011
    FORNL :  cpu time      0.3100: real time      0.3116
    STRESS:  cpu time      0.9540: real time      0.9589
    FORCOR:  cpu time      0.0164: real time      0.0167
    FORHAR:  cpu time      0.0023: real time      0.0023
    MIXING:  cpu time      0.0010: real time      0.0010
    OFIELD:  cpu time      0.0000: real time      0.0000

  FORCE on cell =-STRESS in cart. coord.  units (eV):
  Direction    XX          YY          ZZ          XY          YZ          ZX
  --------------------------------------------------------------------------------------
  Alpha Z    36.00142    36.00142    36.00142
  Ewald    -155.08511  -124.10124  -885.54757     0.00000    -0.00000     0.00000
  Hartree   417.74003   441.18678  -164.55412    -0.00000    -0.00000    -0.00000
  E(xc)    -132.15699  -131.63291  -131.81557     0.00000     0.00000     0.00000
  Local    -825.94156  -871.33867   490.37441     0.00000    -0.00000    -0.00000
  n-local   147.93103   146.05642   145.13408    -0.00741    -0.02423    -0.03017
  augment   -28.04800   -26.41996   -26.21587     0.00000     0.00000    -0.00000
  Kinetic   539.66382   530.26591   536.71443    -1.52295    -0.04406    -0.06737
  Fock        0.00000     0.00000     0.00000     0.00000     0.00000     0.00000
  -------------------------------------------------------------------------------------
  Total       0.10463     0.01776     0.09121    -0.00000     0.00000     0.00000
  in kB       1.80630     0.30659     1.57453    -0.00000     0.00000     0.00000
  external pressure =        1.23 kB  Pullay stress =        0.00 kB


 VOLUME and BASIS-vectors are now :
 -----------------------------------------------------------------------------
  energy-cutoff  :      520.00
  volume of cell :       92.81
      direct lattice vectors                 reciprocal lattice vectors
     3.659500676  0.000000000  0.000000000     0.273261324 -0.000000000  0.000000000
     0.000000000  3.170246903  0.000000000     0.000000000  0.315432845  0.000000000
     0.000000000  0.000000000  7.999746632     0.000000000  0.000000000  0.125003959

  length of vectors
     3.659500676  3.170246903  7.999746632     0.273261324  0.315432845  0.125003959


 FORCES acting on ions
    electron-ion (+dipol)            ewald-force                    non-local-force                 convergence-correction
 -----------------------------------------------------------------------------------------------
   -.384E-13 -.694E-12 0.941E+02   -.321E-15 -.483E-14 -.929E+02   0.163E-20 0.530E-19 -.124E+01   0.124E-14 -.420E-15 0.260E-03
   -.250E-13 -.109E-12 -.941E+02   0.676E-15 0.580E-14 0.929E+02   -.226E-20 -.793E-19 0.124E+01   -.178E-14 0.142E-14 -.260E-03
   0.110E-12 -.749E-12 0.252E+03   0.834E-15 0.279E-14 -.254E+03   -.102E-18 -.343E-19 0.266E+01   0.532E-14 -.846E-14 -.308E-01
   0.102E-12 0.151E-12 -.252E+03   -.184E-14 -.226E-15 0.254E+03   -.288E-19 0.273E-18 -.266E+01   0.914E-14 -.722E-14 0.308E-01
   0.156E-12 0.139E-12 0.104E+03   0.427E-14 -.316E-14 -.110E+03   0.331E-19 0.803E-19 0.553E+01   -.961E-15 -.166E-13 0.104E-02
   0.309E-12 -.132E-11 -.104E+03   -.171E-14 0.463E-14 0.110E+03   0.746E-19 0.781E-19 -.553E+01   0.321E-13 0.691E-14 -.104E-02
 -----------------------------------------------------------------------------------------------
   0.615E-12 -.258E-11 0.739E-12   0.190E-14 0.499E-14 -.142E-13   -.236E-19 0.371E-18 0.000E+00   0.451E-13 -.244E-13 -.956E-12
 
 
 POSITION                                       TOTAL-FORCE (eV/Angst)
 -----------------------------------------------------------------------------------
      2.74463      0.79256      7.16634         0.000000     -0.000000     -0.002036
      0.91488      2.37769      0.83341         0.000000      0.000000      0.002036
      2.74463      2.37769      5.47810        -0.000000      0.000000      0.109552
      0.91488      0.79256      2.52165        -0.000000     -0.000000     -0.109552
      0.91488      0.79256      7.60747         0.000000     -0.000000      0.047472
      2.74463      2.37769      0.39227         0.000000     -0.000000     -0.047472
 -----------------------------------------------------------------------------------
    total drift:                                0.000000     -0.000000     -0.000000


--------------------------------------------------------------------------------------------------------



  FREE ENERGIE OF THE ION-ELECTRON SYSTEM (eV)
  ---------------------------------------------------
  free  energy   TOTEN  =       -35.16686981 eV

  energy  without entropy=      -35.16686981  energy(sigma->0) =      -35.16686981
 
 d Force = 0.2696429E-02[ 0.117E-02, 0.422E-02]  d Energy = 0.1747946E-01-0.148E-01
 d Force =-0.3299041E+01[-0.333E+01,-0.327E+01]  d Ewald  = 0.4693073E+01-0.799E+01


--------------------------------------------------------------------------------------------------------


    POTLOK:  cpu time      0.1363: real time      0.1367


--------------------------------------------------------------------------------------------------------




--------------------------------------------------------------------------------------------------------


  
 reached required accuracy - stopping structural energy minimisation
     LOOP+:  cpu time      7.6287: real time      7.6742
    4ORBIT:  cpu time      0.0000: real time      0.0000



 total charge

# of ion       s       p       d       tot
------------------------------------------
    1        0.304   0.358   0.000   0.661
    2        0.304   0.358   0.000   0.661
    3        1.602   3.576   0.000   5.178
    4        1.602   3.576   0.000   5.178
    5        1.552   3.605   0.000   5.156
    6        1.552   3.605   0.000   5.156
--------------------------------------------------
tot          6.915  15.077   0.000  21.993



 magnetization (x)

# of ion       s       p       d       tot
------------------------------------------
    1       -0.000  -0.000   0.000  -0.000
    2       -0.000  -0.000   0.000  -0.000
    3        0.000   0.000   0.000   0.000
    4        0.000   0.000   0.000   0.000
    5       -0.000   0.000   0.000  -0.000
    6       -0.000   0.000   0.000  -0.000
--------------------------------------------------
tot         -0.000  -0.000   0.000  -0.000
 
 BZINTS: Fermi energy:    2.243557;   32.000000 electrons
         Band energy:-0.110911E+03;  BLOECHL correction:    0.000000

 total amount of memory used by VASP MPI-rank0    44220. kBytes
=======================================================================

   base      :      30000. kBytes
   nonlr-proj:       1526. kBytes
   fftplans  :        926. kBytes
   grid      :       5302. kBytes
   one-center:         36. kBytes
   wavefun   :       6430. kBytes
 
  
  
 General timing and accounting informations for this job:
 ========================================================
  
                  Total CPU time used (sec):       32.637
                            User time (sec):       31.582
                          System time (sec):        1.055
                         Elapsed time (sec):       34.509
  
                   Maximum memory used (kb):      277368.
                   Average memory used (kb):          N/A
  
                          Minor page faults:        32405
                          Major page faults:            0
                 Voluntary context switches:        13150
