<?xml version="1.0" encoding="ISO-8859-1"?>
<modeling>
 <generator>
  <i name="program" type="string">vasp </i>
  <i name="version" type="string">6.4.3  </i>
  <i name="subversion" type="string">19Mar24 (build Oct 16 2024 18:29:25) complex                          parallel </i>
  <i name="platform" type="string">LinuxIFC </i>
  <i name="date" type="string">2025 08 12 </i>
  <i name="time" type="string">18:15:55 </i>
 </generator>
 <incar>
  <i type="string" name="PREC">Accurate</i>
  <i type="string" name="ALGO">Fast</i>
  <i type="int" name="ISPIN">     2</i>
  <i type="int" name="NELM">   100</i>
  <i type="int" name="IBRION">     2</i>
  <i name="EDIFF">      0.00040000</i>
  <i type="int" name="NSW">    99</i>
  <i type="int" name="ISIF">     3</i>
  <i name="ENCUT">    520.00000000</i>
  <v name="MAGMOM">      5.00000000      5.00000000      0.60000000      0.60000000      0.60000000      0.60000000      0.60000000      0.60000000</v>
  <i type="string" name="LREAL">Auto</i>
  <i type="int" name="ISMEAR">    -5</i>
  <i name="SIGMA">      0.05000000</i>
  <i type="int" name="LMAXMIX">     4</i>
  <i type="logical" name="LWAVE"> F  </i>
  <i type="int" name="LORBIT">    11</i>
  <i type="logical" name="LASPH"> T  </i>
 </incar>
 <primitive_cell>
  <structure name="primitive_cell" >
   <crystal>
    <varray name="basis" >
     <v>       1.31081600       3.02292600      -5.06912300 </v>
     <v>       1.31081600      -3.02292600      -5.06912300 </v>
     <v>      -5.66047500       0.00000000      -5.06912300 </v>
    </varray>
    <i name="volume">    213.65032246 </i>
    <varray name="rec_basis" >
     <v>       0.07172273       0.16540266      -0.08008973 </v>
     <v>       0.07172273      -0.16540266      -0.08008973 </v>
     <v>      -0.14344545      -0.00000000      -0.03709332 </v>
    </varray>
   </crystal>
   <varray name="positions" >
    <v>       0.66668300       0.66668300       0.99995100 </v>
    <v>       0.33331700       0.33331700       0.00004900 </v>
    <v>       0.57735100       0.93423900       0.19733300 </v>
    <v>       0.70892300       0.42264900       0.80266700 </v>
    <v>       0.29107700       0.57735100       0.19733300 </v>
    <v>       0.06576100       0.70892300       0.80266700 </v>
    <v>       0.42264900       0.06576100       0.80266700 </v>
    <v>       0.93423900       0.29107700       0.19733300 </v>
   </varray>
  </structure>
  <varray name="primitive_index" >
   <v type="int" >        1 </v>
   <v type="int" >        2 </v>
   <v type="int" >        3 </v>
   <v type="int" >        4 </v>
   <v type="int" >        5 </v>
   <v type="int" >        6 </v>
   <v type="int" >        7 </v>
   <v type="int" >        8 </v>
  </varray>
 </primitive_cell>
 <kpoints>
  <generation param="Gamma">
   <v type="int" name="divisions">       4        4        3 </v>
   <v name="usershift">      0.00000000       0.00000000       0.00000000 </v>
   <v name="genvec1">      0.25000000      -0.00000000      -0.00000000 </v>
   <v name="genvec2">     -0.00000000       0.25000000      -0.00000000 </v>
   <v name="genvec3">     -0.00000000      -0.00000000       0.33333333 </v>
   <v name="shift">      0.00000000       0.00000000       0.00000000 </v>
  </generation>
  <varray name="kpointlist" >
   <v>       0.00000000       0.00000000       0.00000000 </v>
   <v>       0.25000000       0.00000000       0.00000000 </v>
   <v>       0.50000000       0.00000000       0.00000000 </v>
   <v>       0.25000000       0.25000000       0.00000000 </v>
   <v>       0.50000000       0.25000000       0.00000000 </v>
   <v>      -0.25000000       0.25000000       0.00000000 </v>
   <v>       0.25000000       0.50000000       0.00000000 </v>
   <v>       0.50000000       0.50000000       0.00000000 </v>
   <v>       0.00000000       0.00000000       0.33333333 </v>
   <v>       0.25000000       0.00000000       0.33333333 </v>
   <v>       0.50000000       0.00000000       0.33333333 </v>
   <v>      -0.25000000       0.00000000       0.33333333 </v>
   <v>       0.25000000       0.25000000       0.33333333 </v>
   <v>       0.50000000       0.25000000       0.33333333 </v>
   <v>      -0.25000000       0.25000000       0.33333333 </v>
   <v>       0.25000000       0.50000000       0.33333333 </v>
   <v>       0.50000000       0.50000000       0.33333333 </v>
   <v>      -0.25000000       0.50000000       0.33333333 </v>
   <v>       0.25000000      -0.25000000       0.33333333 </v>
   <v>       0.50000000      -0.25000000       0.33333333 </v>
   <v>      -0.25000000      -0.25000000       0.33333333 </v>
  </varray>
  <varray name="weights" >
   <v>       0.02083333 </v>
   <v>       0.08333333 </v>
   <v>       0.04166667 </v>
   <v>       0.04166667 </v>
   <v>       0.04166667 </v>
   <v>       0.04166667 </v>
   <v>       0.04166667 </v>
   <v>       0.02083333 </v>
   <v>       0.04166667 </v>
   <v>       0.08333333 </v>
   <v>       0.08333333 </v>
   <v>       0.08333333 </v>
   <v>       0.04166667 </v>
   <v>       0.04166667 </v>
   <v>       0.04166667 </v>
   <v>       0.04166667 </v>
   <v>       0.04166667 </v>
   <v>       0.04166667 </v>
   <v>       0.04166667 </v>
   <v>       0.04166667 </v>
   <v>       0.04166667 </v>
  </varray>
  <varray name="tetrahedronlist"  type="int" >
   <v type="int" >        2       11       11       15       18 </v>
   <v type="int" >        2       10       11       11       15 </v>
   <v type="int" >        2       10       11       12       15 </v>
   <v type="int" >        2       11       15       16       18 </v>
   <v type="int" >        2       11       15       16       19 </v>
   <v type="int" >        4       11       12       15       19 </v>
   <v type="int" >        2       10       12       18       21 </v>
   <v type="int" >        2       10       11       12       18 </v>
   <v type="int" >        2       10       11       11       18 </v>
   <v type="int" >        2       10       13       18       21 </v>
   <v type="int" >        2       10       13       16       18 </v>
   <v type="int" >        2       10       11       16       18 </v>
   <v type="int" >        4        9        9       12       21 </v>
   <v type="int" >        4        9       10       12       21 </v>
   <v type="int" >        4        9       10       13       21 </v>
   <v type="int" >        2       10       12       12       15 </v>
   <v type="int" >        4        9       10       12       12 </v>
   <v type="int" >        2        9        9       12       12 </v>
   <v type="int" >        2       12       12       15       19 </v>
   <v type="int" >        2       10       12       12       19 </v>
   <v type="int" >        2        7       16       17       20 </v>
   <v type="int" >        2        7       16       19       20 </v>
   <v type="int" >        2        6        7       19       20 </v>
   <v type="int" >        2        7        8       17       20 </v>
   <v type="int" >        2        5        7        8       20 </v>
   <v type="int" >        2        5        6        7       20 </v>
   <v type="int" >        2        4       13       14       17 </v>
   <v type="int" >        2        4       13       16       17 </v>
   <v type="int" >        2        4        7       16       17 </v>
   <v type="int" >        2        4        5       14       17 </v>
   <v type="int" >        2        4        5        8       17 </v>
   <v type="int" >        2        4        7        8       17 </v>
   <v type="int" >        2        2       10       11       14 </v>
   <v type="int" >        2        2       10       13       14 </v>
   <v type="int" >        2        2        4       13       14 </v>
   <v type="int" >        2        2        3       11       14 </v>
   <v type="int" >        2        2        3        5       14 </v>
   <v type="int" >        2        2        4        5       14 </v>
   <v type="int" >        2        6       11       19       20 </v>
   <v type="int" >        2        6       10       11       19 </v>
   <v type="int" >        4        2        6       10       11 </v>
   <v type="int" >        2        5        6       11       20 </v>
   <v type="int" >        2        3        5        6       11 </v>
   <v type="int" >        4        2        3        6       11 </v>
   <v type="int" >        2        3       11       16       19 </v>
   <v type="int" >        2        3       11       12       19 </v>
   <v type="int" >        2        2        3       12       19 </v>
   <v type="int" >        2        3        7       16       19 </v>
   <v type="int" >        2        3        6        7       19 </v>
   <v type="int" >        2        2        3        6       19 </v>
   <v type="int" >        2        2       10       13       16 </v>
   <v type="int" >        2        2       10       11       16 </v>
   <v type="int" >        2        2        3       11       16 </v>
   <v type="int" >        2        2        4       13       16 </v>
   <v type="int" >        2        2        4        7       16 </v>
   <v type="int" >        2        2        3        7       16 </v>
   <v type="int" >        4        1        9       10       13 </v>
   <v type="int" >        4        1        2       10       13 </v>
   <v type="int" >        4        1        2        4       13 </v>
   <v type="int" >        2        2       10       12       19 </v>
   <v type="int" >        4        2        9       10       12 </v>
   <v type="int" >        4        1        2        9       10 </v>
   <v type="int" >        2        2        6       10       19 </v>
   <v type="int" >        4        2        2        6       10 </v>
   <v type="int" >        4        1        2        2       10 </v>
   <v type="int" >        2        5        7        8       18 </v>
   <v type="int" >        2        5        6        7       18 </v>
   <v type="int" >        2        5        6       15       18 </v>
   <v type="int" >        2        5        8       17       18 </v>
   <v type="int" >        2        5       14       17       18 </v>
   <v type="int" >        2        5       14       15       18 </v>
   <v type="int" >        2        4        5        8       21 </v>
   <v type="int" >        2        4        7        8       21 </v>
   <v type="int" >        2        7        8       18       21 </v>
   <v type="int" >        2        5        8       20       21 </v>
   <v type="int" >        2        8       17       20       21 </v>
   <v type="int" >        2        8       17       18       21 </v>
   <v type="int" >        2        2        3        5       12 </v>
   <v type="int" >        2        2        4        5       12 </v>
   <v type="int" >        2        4        5       12       21 </v>
   <v type="int" >        2        3        5       11       12 </v>
   <v type="int" >        2        5       11       12       20 </v>
   <v type="int" >        2        5       12       20       21 </v>
   <v type="int" >        2        3        5        6       15 </v>
   <v type="int" >        2        2        3        6       15 </v>
   <v type="int" >        2        2        3       12       15 </v>
   <v type="int" >        2        3        5       14       15 </v>
   <v type="int" >        2        3       11       14       15 </v>
   <v type="int" >        2        3       11       12       15 </v>
   <v type="int" >        2       13       16       17       17 </v>
   <v type="int" >        2       13       14       17       17 </v>
   <v type="int" >        2       13       14       17       20 </v>
   <v type="int" >        2       13       16       17       18 </v>
   <v type="int" >        2       13       17       18       21 </v>
   <v type="int" >        2       13       17       20       21 </v>
   <v type="int" >        2       14       16       19       20 </v>
   <v type="int" >        2       14       16       17       20 </v>
   <v type="int" >        2       14       16       17       17 </v>
   <v type="int" >        2       14       15       16       19 </v>
   <v type="int" >        2       14       15       16       18 </v>
   <v type="int" >        2       14       16       17       18 </v>
   <v type="int" >        2       10       11       11       19 </v>
   <v type="int" >        2       11       11       19       20 </v>
   <v type="int" >        2       11       14       19       20 </v>
   <v type="int" >        2       10       11       12       19 </v>
   <v type="int" >        2       11       14       15       19 </v>
   <v type="int" >        2       10       13       14       20 </v>
   <v type="int" >        2       10       11       14       20 </v>
   <v type="int" >        2       10       11       11       20 </v>
   <v type="int" >        2       10       13       20       21 </v>
   <v type="int" >        2       10       12       20       21 </v>
   <v type="int" >        2       10       11       12       20 </v>
   <v type="int" >        2        7       11       12       18 </v>
   <v type="int" >        2        7       12       18       21 </v>
   <v type="int" >        2        4        7       12       21 </v>
   <v type="int" >        2        3        7       11       12 </v>
   <v type="int" >        2        2        3        7       12 </v>
   <v type="int" >        2        2        4        7       12 </v>
   <v type="int" >        2        6       10       11       15 </v>
   <v type="int" >        2        6       11       15       18 </v>
   <v type="int" >        2        6        7       11       18 </v>
   <v type="int" >        2        3        6        7       11 </v>
   <v type="int" >        2        2       10       12       15 </v>
   <v type="int" >        2        2        6       10       15 </v>
   <v type="int" >        4        4        9       12       21 </v>
   <v type="int" >        4        2        4        9       12 </v>
   <v type="int" >        4        1        2        4        9 </v>
  </varray>
  <i name="volumeweight">      0.00347222 </i>
 </kpoints>
 <parameters>
  <separator name="general" >
   <i type="string" name="SYSTEM">unknown system</i>
   <i type="logical" name="LCOMPAT"> F  </i>
  </separator>
  <separator name="electronic" >
   <i type="string" name="PREC">accura</i>
   <i name="ENMAX">    520.00000000</i>
   <i name="ENAUG">    519.42400000</i>
   <i name="EDIFF">      0.00040000</i>
   <i type="int" name="IALGO">    68</i>
   <i type="int" name="IWAVPR">    11</i>
   <i type="int" name="NBANDS">    64</i>
   <i type="int" name="NBANDSLOW">    -1</i>
   <i type="int" name="NBANDSHIGH">    -1</i>
   <i name="NELECT">     66.00000000</i>
   <i type="int" name="TURBO">     0</i>
   <i type="int" name="IRESTART">     0</i>
   <i type="int" name="NREBOOT">     0</i>
   <i type="int" name="NMIN">     0</i>
   <i name="EREF">      0.00000000</i>
   <separator name="electronic smearing" >
    <i type="int" name="ISMEAR">    -5</i>
    <i name="SIGMA">      0.05000000</i>
    <i name="KSPACING">      0.50000000</i>
    <i type="logical" name="KGAMMA"> T  </i>
    <i type="logical" name="KBLOWUP"> F  </i>
   </separator>
   <separator name="electronic projectors" >
    <i type="logical" name="LREAL"> T  </i>
    <v name="ROPT">     -0.00025000     -0.00025000</v>
    <i type="int" name="LMAXPAW">  -100</i>
    <i type="int" name="LMAXMIX">     4</i>
    <i type="logical" name="NLSPLINE"> F  </i>
   </separator>
   <separator name="electronic startup" >
    <i type="int" name="ISTART">     0</i>
    <i type="int" name="ICHARG">     2</i>
    <i type="int" name="INIWAV">     1</i>
   </separator>
   <separator name="electronic spin" >
    <i type="int" name="ISPIN">     2</i>
    <i type="logical" name="LNONCOLLINEAR"> F  </i>
    <v name="MAGMOM">      5.00000000      5.00000000      0.60000000      0.60000000      0.60000000      0.60000000      0.60000000      0.60000000</v>
    <i name="NUPDOWN">     -1.00000000</i>
    <i type="logical" name="LSORBIT"> F  </i>
    <v name="SAXIS">      0.00000000      0.00000000      1.00000000</v>
    <i type="logical" name="LSPIRAL"> F  </i>
    <v name="QSPIRAL">      0.00000000      0.00000000      0.00000000</v>
    <i type="logical" name="LZEROZ"> F  </i>
   </separator>
   <separator name="electronic exchange-correlation" >
    <i type="logical" name="LASPH"> T  </i>
   </separator>
   <separator name="electronic convergence" >
    <i type="int" name="NELM">   100</i>
    <i type="int" name="NELMDL">    -5</i>
    <i type="int" name="NELMIN">     2</i>
    <i name="ENINI">    520.00000000</i>
    <separator name="electronic convergence detail" >
     <i type="logical" name="LDIAG"> T  </i>
     <i type="logical" name="LSUBROT"> F  </i>
     <i name="WEIMIN">      0.00100000</i>
     <i name="EBREAK">      0.00000156</i>
     <i name="DEPER">      0.30000000</i>
     <i type="int" name="NRMM">     4</i>
     <i name="TIME">      0.40000000</i>
    </separator>
   </separator>
   <separator name="electronic mixer" >
    <i name="AMIX">      0.40000000</i>
    <i name="BMIX">      1.00000000</i>
    <i name="AMIN">      0.10000000</i>
    <i name="AMIX_MAG">      1.60000000</i>
    <i name="BMIX_MAG">      1.00000000</i>
    <separator name="electronic mixer details" >
     <i type="int" name="IMIX">     4</i>
     <i type="logical" name="MIXFIRST"> F  </i>
     <i type="int" name="MAXMIX">   -45</i>
     <i name="WC">    100.00000000</i>
     <i type="int" name="INIMIX">     1</i>
     <i type="int" name="MIXPRE">     1</i>
     <i type="int" name="MREMOVE">     5</i>
    </separator>
   </separator>
   <separator name="electronic dipolcorrection" >
    <i type="logical" name="LDIPOL"> F  </i>
    <i type="logical" name="LMONO"> F  </i>
    <i type="int" name="IDIPOL">     0</i>
    <i name="EPSILON">      1.00000000</i>
    <v name="DIPOL">   -100.00000000   -100.00000000   -100.00000000</v>
    <i name="EFIELD">      0.00000000</i>
    <i type="logical" name="LVACPOTAV"> F  </i>
   </separator>
  </separator>
  <separator name="grids" >
   <i type="int" name="NGX">    48</i>
   <i type="int" name="NGY">    48</i>
   <i type="int" name="NGZ">    60</i>
   <i type="int" name="NGXF">    96</i>
   <i type="int" name="NGYF">    96</i>
   <i type="int" name="NGZF">   120</i>
   <i type="logical" name="ADDGRID"> F  </i>
  </separator>
  <separator name="ionic" >
   <i type="int" name="NSW">    99</i>
   <i type="int" name="IBRION">     2</i>
   <i type="int" name="MDALGO">     0</i>
   <i type="int" name="ISIF">     3</i>
   <i name="PSTRESS">      0.00000000</i>
   <i name="EDIFFG">      0.00400000</i>
   <i type="int" name="NFREE">     1</i>
   <i name="POTIM">      0.50000000</i>
   <i name="SMASS">     -3.00000000</i>
   <i name="SCALEE">      1.00000000</i>
  </separator>
  <separator name="ionic md" >
   <i name="TEBEG">      0.00010000</i>
   <i name="TEEND">      0.00010000</i>
   <i type="int" name="NBLOCK">     1</i>
   <i type="int" name="KBLOCK">    99</i>
   <i type="int" name="NPACO">   256</i>
   <i name="APACO">     10.00000000</i>
  </separator>
  <separator name="symmetry" >
   <i type="int" name="ISYM">     2</i>
   <i name="SYMPREC">      0.00001000</i>
  </separator>
  <separator name="dos" >
   <i type="int" name="LORBIT">    11</i>
   <v name="RWIGS">     -1.00000000     -1.00000000</v>
   <i type="int" name="NEDOS">   301</i>
   <i name="EMIN">     10.00000000</i>
   <i name="EMAX">    -10.00000000</i>
   <i name="EFERMI">      0.00000000</i>
  </separator>
  <separator name="writing" >
   <i type="int" name="NWRITE">     2</i>
   <i type="logical" name="LWAVE"> F  </i>
   <i type="logical" name="LDOWNSAMPLE"> F  </i>
   <i type="logical" name="LCHARG"> T  </i>
   <i type="logical" name="LPARD"> F  </i>
   <i type="logical" name="LVTOT"> F  </i>
   <i type="logical" name="LVHAR"> F  </i>
   <i type="logical" name="LELF"> F  </i>
   <i type="logical" name="LOPTICS"> F  </i>
   <v name="STM">      0.00000000      0.00000000      0.00000000      0.00000000      0.00000000      0.00000000      0.00000000</v>
  </separator>
  <separator name="performance" >
   <i type="int" name="NPAR">    32</i>
   <i type="int" name="NSIM">     4</i>
   <i type="int" name="NBLK">    -1</i>
   <i type="logical" name="LPLANE"> T  </i>
   <i type="logical" name="LSCALAPACK"> T  </i>
   <i type="logical" name="LSCAAWARE"> F  </i>
   <i type="logical" name="LSCALU"> F  </i>
   <i type="logical" name="LASYNC"> F  </i>
   <i type="logical" name="LORBITALREAL"> F  </i>
  </separator>
  <separator name="miscellaneous" >
   <i type="int" name="IDIOT">     3</i>
   <i type="int" name="PHON_NSTRUCT">    -1</i>
   <i type="logical" name="LMUSIC"> F  </i>
   <v name="POMASS">     51.99600000     35.45300000</v>
   <v name="DARWINR">      0.00000000      0.00000000</v>
   <v name="DARWINV">      1.00000000      1.00000000</v>
   <i type="logical" name="LCORR"> T  </i>
  </separator>
  <i type="logical" name="GGA_COMPAT"> T  </i>
  <i type="logical" name="LBERRY"> F  </i>
  <i type="int" name="ICORELEVEL">     0</i>
  <i type="logical" name="LDAU"> F  </i>
  <i type="int" name="I_CONSTRAINED_M">     0</i>
  <separator name="electronic exchange-correlation" >
   <i type="string" name="GGA    ">PE</i>
   <i type="string" name="XC_C">1</i>
   <i type="int" name="VOSKOWN">     0</i>
   <i type="logical" name="LHFCALC"> F  </i>
   <i type="string" name="PRECFOCK"></i>
   <i type="logical" name="LSYMGRAD"> F  </i>
   <i type="logical" name="LHFONE"> F  </i>
   <i type="logical" name="LRHFCALC"> F  </i>
   <i type="logical" name="LTHOMAS"> F  </i>
   <i type="logical" name="LMODELHF"> F  </i>
   <i type="logical" name="LFOCKACE"> F  </i>
   <i name="ENCUT4O">     -1.00000000</i>
   <i type="int" name="EXXOEP">     0</i>
   <i type="int" name="FOURORBIT">     0</i>
   <i name="AEXX">      0.00000000</i>
   <i name="HFALPHA">      0.00000000</i>
   <i name="MCALPHA">      0.00000000</i>
   <i name="ALDAX">      1.00000000</i>
   <i name="AGGAX">      1.00000000</i>
   <i name="AMGGAX">      1.00000000</i>
   <i name="ALDAC">      1.00000000</i>
   <i name="AGGAC">      1.00000000</i>
   <i name="AMGGAC">      1.00000000</i>
   <i type="int" name="NKREDX">     1</i>
   <i type="int" name="NKREDY">     1</i>
   <i type="int" name="NKREDZ">     1</i>
   <i type="logical" name="SHIFTRED"> F  </i>
   <i type="logical" name="ODDONLY"> F  </i>
   <i type="logical" name="EVENONLY"> F  </i>
   <i type="int" name="LMAXFOCK">     0</i>
   <i type="int" name="NMAXFOCKAE">     0</i>
   <i type="logical" name="LFOCKAEDFT"> F  </i>
   <i name="HFSCREEN">      0.00000000</i>
   <i name="HFSCREENC">      0.00000000</i>
   <i type="int" name="NBANDSGWLOW">     0</i>
  </separator>
  <separator name="vdW DFT" >
   <i type="logical" name="LUSE_VDW"> F  </i>
   <i type="int" name="IVDW_NL">    -1</i>
   <i type="logical" name="LSPIN_VDW"> F  </i>
   <i name="ZAB_VDW">     -0.84910000</i>
   <i name="GAMMA_VDW">      1.39626340</i>
   <i name="ALPHA_VDW">      0.00000000</i>
   <i name="PARAM1">      0.12340000</i>
   <i name="PARAM2">      1.00000000</i>
   <i name="BPARAM">      6.30000000</i>
   <i name="CPARAM">      0.00930000</i>
  </separator>
  <separator name="model GW" >
   <i type="int" name="MODEL_GW">     0</i>
   <i name="MODEL_EPS0">     16.02377418</i>
   <i name="MODEL_ALPHA">      1.00000000</i>
  </separator>
  <separator name="linear response parameters" >
   <i type="logical" name="LEPSILON"> F  </i>
   <i type="logical" name="LRPA"> F  </i>
   <i type="logical" name="LNABLA"> F  </i>
   <i type="logical" name="LVEL"> F  </i>
   <i name="CSHIFT">      0.10000000</i>
   <i name="OMEGAMAX">     -1.00000000</i>
   <i name="DEG_THRESHOLD">      0.00200000</i>
   <i name="RTIME">     -0.10000000</i>
   <i name="WPLASMAI">      0.00000000</i>
   <v name="DFIELD">      0.00000000      0.00000000      0.00000000</v>
   <v name="WPLASMA">      0.00000000      0.00000000      0.00000000      0.00000000      0.00000000      0.00000000      0.00000000      0.00000000      0.00000000</v>
  </separator>
  <separator name="orbital magnetization" >
   <i type="logical" name="NUCIND"> F  </i>
   <v name="MAGPOS">      0.00000000      0.00000000      0.00000000</v>
   <i type="logical" name="LNICSALL"> T  </i>
   <i type="logical" name="ORBITALMAG"> F  </i>
   <i type="logical" name="LMAGBLOCH"> F  </i>
   <i type="logical" name="LCHIMAG"> F  </i>
   <i type="logical" name="LGAUGE"> T  </i>
   <i type="int" name="MAGATOM">     0</i>
   <v name="MAGDIPOL">      0.00000000      0.00000000      0.00000000</v>
   <v name="AVECCONST">      0.00000000      0.00000000      0.00000000</v>
  </separator>
  <separator name="response functions" >
   <i type="logical" name="LALL_IN_ONE"> F  </i>
   <i type="int" name="IALL_IN_ONE">    -1</i>
   <i type="int" name="NBANDS_WAVE">    -1</i>
   <i type="logical" name="LFINITE_TEMPERATURE"> F  </i>
   <i type="logical" name="LADDER"> F  </i>
   <i type="logical" name="LRPAFORCE"> F  </i>
   <i type="logical" name="LFXC"> F  </i>
   <i type="logical" name="LHARTREE"> T  </i>
   <i type="int" name="IBSE">     0</i>
   <v type="int" name="KPOINT">    -1     0     0     0</v>
   <i type="logical" name="LTCTC"> F  </i>
   <i type="logical" name="LTCTE"> F  </i>
   <i type="logical" name="LTETE"> F  </i>
   <i type="logical" name="LTRIPLET"> F  </i>
   <i type="logical" name="LFXCEPS"> F  </i>
   <i type="logical" name="LFXHEG"> F  </i>
   <i type="int" name="NATURALO">     2</i>
   <i type="logical" name="LHOLEGF"> F  </i>
   <i type="logical" name="L2ORDER"> F  </i>
   <i type="logical" name="LDMP1"> F  </i>
   <i type="logical" name="LMP2LT"> F  </i>
   <i type="logical" name="LSMP2LT"> F  </i>
   <i type="logical" name="LGWLF"> F  </i>
   <i name="ENCUTGW">     -1.60000002</i>
   <i name="ENCUTGWSOFT">     -1.60000002</i>
   <i name="ENCUTLF">     -1.00000000</i>
   <i type="logical" name="ESF_SPLINES"> F  </i>
   <i name="ESF_CONV">      0.01000000</i>
   <i type="int" name="ESF_NINTER">    15</i>
   <i type="int" name="LMAXMP2">    -1</i>
   <i name="SCISSOR">      0.00000000</i>
   <i type="int" name="NOMEGA">     0</i>
   <i type="int" name="NOMEGAR">     0</i>
   <i type="int" name="NBANDSGW">    -1</i>
   <i type="int" name="NBANDSO">    -1</i>
   <i type="int" name="NBANDSV">    -1</i>
   <i type="int" name="NELMGW">     1</i>
   <i type="int" name="NELMHF">     1</i>
   <i type="int" name="DIM">     3</i>
   <i type="int" name="IESPILON">     4</i>
   <i type="int" name="ANTIRES">     0</i>
   <i name="OMEGAMAX">    -30.00000000</i>
   <i name="OMEGAMIN">    -30.00000000</i>
   <i name="OMEGATL">   -200.00000000</i>
   <i type="int" name="OMEGAGRID">     0</i>
   <i name="CSHIFT">     -0.10000000</i>
   <i type="logical" name="LSELFENERGY"> F  </i>
   <i type="logical" name="LSPECTRAL"> F  </i>
   <i type="logical" name="LSPECTRALGW"> F  </i>
   <i type="logical" name="LSINGLES"> F  </i>
   <i type="logical" name="LFERMIGW"> F  </i>
   <i type="logical" name="ODDONLYGW"> F  </i>
   <i type="logical" name="EVENONLYGW"> F  </i>
   <i type="int" name="NKREDLFX">     1</i>
   <i type="int" name="NKREDLFY">     1</i>
   <i type="int" name="NKREDLFZ">     1</i>
   <i type="int" name="MAXMEM">  2800</i>
   <i type="int" name="TELESCOPE">     0</i>
   <i type="int" name="NTAUPAR">    -1</i>
   <i type="int" name="NOMEGAPAR">    -1</i>
   <i name="DAMP_NEWTON">      0.80000001</i>
   <i name="LAMBDA">      1.00000000</i>
  </separator>
  <separator name="External order field" >
   <i name="OFIELD_KAPPA">      0.00000000</i>
   <v name="OFIELD_K">      0.00000000      0.00000000      0.00000000</v>
   <i name="OFIELD_Q6_NEAR">      0.00000000</i>
   <i name="OFIELD_Q6_FAR">      0.00000000</i>
   <i name="OFIELD_A">      0.00000000</i>
  </separator>
  <separator name="optional k-points parameters" >
   <i type="int" name="KPOINTS_OPT_MODE">     1</i>
   <i type="logical" name="LKPOINTS_OPT"> F  </i>
  </separator>
 </parameters>
 <atominfo>
  <atoms>       8 </atoms>
  <types>       2 </types>
  <array name="atoms" >
   <dimension dim="1">ion</dimension>
   <field type="string">element</field>
   <field type="int">atomtype</field>
   <set>
    <rc><c>Cr</c><c>   1</c></rc>
    <rc><c>Cr</c><c>   1</c></rc>
    <rc><c>Cl</c><c>   2</c></rc>
    <rc><c>Cl</c><c>   2</c></rc>
    <rc><c>Cl</c><c>   2</c></rc>
    <rc><c>Cl</c><c>   2</c></rc>
    <rc><c>Cl</c><c>   2</c></rc>
    <rc><c>Cl</c><c>   2</c></rc>
   </set>
  </array>
  <array name="atomtypes" >
   <dimension dim="1">type</dimension>
   <field type="int">atomspertype</field>
   <field type="string">element</field>
   <field>mass</field>
   <field>valence</field>
   <field type="string">pseudopotential</field>
   <set>
    <rc><c>   2</c><c>Cr</c><c>     51.99600000</c><c>     12.00000000</c><c> PAW_PBE Cr_pv 07Sep2000                </c></rc>
    <rc><c>   6</c><c>Cl</c><c>     35.45300000</c><c>      7.00000000</c><c>  PAW_PBE Cl 17Jan2003                  </c></rc>
   </set>
  </array>
 </atominfo>
 <structure name="initialpos" >
  <crystal>
   <varray name="basis" >
    <v>       1.31081600       3.02292600      -5.06912300 </v>
    <v>       1.31081600      -3.02292600      -5.06912300 </v>
    <v>      -5.66047500       0.00000000      -5.06912300 </v>
   </varray>
   <i name="volume">    213.65032246 </i>
   <varray name="rec_basis" >
    <v>       0.07172273       0.16540266      -0.08008973 </v>
    <v>       0.07172273      -0.16540266      -0.08008973 </v>
    <v>      -0.14344545      -0.00000000      -0.03709332 </v>
   </varray>
  </crystal>
  <varray name="positions" >
   <v>       0.66668300       0.66668300       0.99995100 </v>
   <v>       0.33331700       0.33331700       0.00004900 </v>
   <v>       0.57735100       0.93423900       0.19733300 </v>
   <v>       0.70892300       0.42264900       0.80266700 </v>
   <v>       0.29107700       0.57735100       0.19733300 </v>
   <v>       0.06576100       0.70892300       0.80266700 </v>
   <v>       0.42264900       0.06576100       0.80266700 </v>
   <v>       0.93423900       0.29107700       0.19733300 </v>
  </varray>
 </structure>
 <calculation>
  <scstep>
   <time name="dav">    3.22    3.25</time>
   <time name="total">    3.71    3.74</time>
   <energy>
    <i name="alphaZ">    137.32508174 </i>
    <i name="ewald">  -2773.92673054 </i>
    <i name="hartreedc">  -2553.89976458 </i>
    <i name="XCdc">    234.49080976 </i>
    <i name="pawpsdc">   3538.39426571 </i>
    <i name="pawaedc">  -3635.13046243 </i>
    <i name="eentropy">      0.00000000 </i>
    <i name="bandstr">   -212.60040323 </i>
    <i name="atom">   5753.46335376 </i>
    <i name="e_fr_energy">    488.11615020 </i>
    <i name="e_wo_entrp">    488.11615020 </i>
    <i name="e_0_energy">    488.11615020 </i>
   </energy>
  </scstep>
  <scstep>
   <time name="dav">    3.63    3.66</time>
   <time name="total">    3.63    3.66</time>
   <energy>
    <i name="e_fr_energy">     -3.08303807 </i>
    <i name="e_wo_entrp">     -3.08303807 </i>
    <i name="e_0_energy">     -3.08303807 </i>
   </energy>
  </scstep>
  <scstep>
   <time name="dav">    4.15    4.18</time>
   <time name="total">    4.16    4.19</time>
   <energy>
    <i name="e_fr_energy">    -40.14945041 </i>
    <i name="e_wo_entrp">    -40.14945041 </i>
    <i name="e_0_energy">    -40.14945041 </i>
   </energy>
  </scstep>
  <scstep>
   <time name="dav">    3.62    3.65</time>
   <time name="total">    3.63    3.65</time>
   <energy>
    <i name="e_fr_energy">    -41.17594888 </i>
    <i name="e_wo_entrp">    -41.17594888 </i>
    <i name="e_0_energy">    -41.17594888 </i>
   </energy>
  </scstep>
  <scstep>
   <time name="dav">    4.74    4.78</time>
   <time name="total">    4.92    4.95</time>
   <energy>
    <i name="e_fr_energy">    -41.22607065 </i>
    <i name="e_wo_entrp">    -41.22607065 </i>
    <i name="e_0_energy">    -41.22607065 </i>
   </energy>
  </scstep>
  <scstep>
   <time name="diag">    0.56    0.57</time>
   <time name="diis">    2.56    2.58</time>
   <time name="orth">    0.02    0.02</time>
   <time name="total">    3.67    3.69</time>
   <energy>
    <i name="e_fr_energy">    -38.71882656 </i>
    <i name="e_wo_entrp">    -38.71882656 </i>
    <i name="e_0_energy">    -38.71882656 </i>
   </energy>
  </scstep>
  <scstep>
   <time name="diag">    0.50    0.50</time>
   <time name="diis">    2.53    2.54</time>
   <time name="orth">    0.02    0.02</time>
   <time name="total">    3.56    3.58</time>
   <energy>
    <i name="e_fr_energy">    -39.33521740 </i>
    <i name="e_wo_entrp">    -39.33521740 </i>
    <i name="e_0_energy">    -39.33521740 </i>
   </energy>
  </scstep>
  <scstep>
   <time name="diag">    0.49    0.50</time>
   <time name="diis">    2.54    2.56</time>
   <time name="orth">    0.02    0.02</time>
   <time name="total">    3.56    3.59</time>
   <energy>
    <i name="e_fr_energy">    -39.47253459 </i>
    <i name="e_wo_entrp">    -39.47253459 </i>
    <i name="e_0_energy">    -39.47253459 </i>
   </energy>
  </scstep>
  <scstep>
   <time name="diag">    0.49    0.50</time>
   <time name="diis">    2.50    2.52</time>
   <time name="orth">    0.02    0.02</time>
   <time name="total">    3.52    3.54</time>
   <energy>
    <i name="e_fr_energy">    -39.45719354 </i>
    <i name="e_wo_entrp">    -39.45719354 </i>
    <i name="e_0_energy">    -39.45719354 </i>
   </energy>
  </scstep>
  <scstep>
   <time name="diag">    0.49    0.49</time>
   <time name="diis">    2.65    2.67</time>
   <time name="orth">    0.02    0.02</time>
   <time name="total">    3.66    3.68</time>
   <energy>
    <i name="e_fr_energy">    -39.46298727 </i>
    <i name="e_wo_entrp">    -39.46298727 </i>
    <i name="e_0_energy">    -39.46298727 </i>
   </energy>
  </scstep>
  <scstep>
   <time name="diag">    0.49    0.49</time>
   <time name="diis">    2.38    2.39</time>
   <time name="orth">    0.02    0.02</time>
   <time name="total">    3.38    3.41</time>
   <energy>
    <i name="e_fr_energy">    -39.46639446 </i>
    <i name="e_wo_entrp">    -39.46639446 </i>
    <i name="e_0_energy">    -39.46639446 </i>
   </energy>
  </scstep>
  <scstep>
   <time name="diag">    0.49    0.49</time>
   <time name="diis">    2.03    2.04</time>
   <time name="orth">    0.02    0.02</time>
   <time name="total">    2.88    2.89</time>
   <energy>
    <i name="alphaZ">    137.32508174 </i>
    <i name="ewald">  -2773.92673054 </i>
    <i name="hartreedc">  -2505.86324234 </i>
    <i name="XCdc">    231.21661266 </i>
    <i name="pawpsdc">   3594.96350856 </i>
    <i name="pawaedc">  -3697.33168345 </i>
    <i name="eentropy">      0.00000000 </i>
    <i name="bandstr">   -779.31354374 </i>
    <i name="atom">   5753.46335376 </i>
    <i name="e_fr_energy">    -39.46664336 </i>
    <i name="e_wo_entrp">    -39.46664336 </i>
    <i name="e_0_energy">    -39.46664336 </i>
   </energy>
  </scstep>
  <structure>
   <crystal>
    <varray name="basis" >
     <v>       1.31081600       3.02292600      -5.06912300 </v>
     <v>       1.31081600      -3.02292600      -5.06912300 </v>
     <v>      -5.66047500       0.00000000      -5.06912300 </v>
    </varray>
    <i name="volume">    213.65032246 </i>
    <varray name="rec_basis" >
     <v>       0.07172273       0.16540266      -0.08008973 </v>
     <v>       0.07172273      -0.16540266      -0.08008973 </v>
     <v>      -0.14344545      -0.00000000      -0.03709332 </v>
    </varray>
   </crystal>
   <varray name="positions" >
    <v>       0.66668300       0.66668300       0.99995100 </v>
    <v>       0.33331700       0.33331700       0.00004900 </v>
    <v>       0.57735100       0.93423900       0.19733300 </v>
    <v>       0.70892300       0.42264900       0.80266700 </v>
    <v>       0.29107700       0.57735100       0.19733300 </v>
    <v>       0.06576100       0.70892300       0.80266700 </v>
    <v>       0.42264900       0.06576100       0.80266700 </v>
    <v>       0.93423900       0.29107700       0.19733300 </v>
   </varray>
  </structure>
  <varray name="forces" >
   <v>      -0.00177303       0.00000000      -0.00045848 </v>
   <v>       0.00177303       0.00000000       0.00045848 </v>
   <v>      -0.03029348      -0.01980292       0.02813681 </v>
   <v>       0.02150922      -0.04006068       0.00583327 </v>
   <v>      -0.02150922       0.04006068      -0.00583327 </v>
   <v>       0.01292218       0.02025775       0.03904065 </v>
   <v>       0.03029348       0.01980292      -0.02813681 </v>
   <v>      -0.01292218      -0.02025775      -0.03904065 </v>
  </varray>
  <varray name="stress" >
   <v>      -2.53504909       0.00072680      -0.07068987 </v>
   <v>      -0.00072680      -2.26168126       0.00281065 </v>
   <v>      -0.07068987      -0.00281065      -2.27996102 </v>
  </varray>
  <energy>
   <i name="e_fr_energy">    -39.46664336 </i>
   <i name="e_wo_entrp">    -39.46664336 </i>
   <i name="e_0_energy">    -39.46664336 </i>
  </energy>
  <time name="totalsc">   50.95   51.30</time>
 </calculation>
 <calculation>
  <scstep>
   <time name="dav">    4.32    4.35</time>
   <time name="total">    4.83    4.86</time>
   <energy>
    <i name="alphaZ">    138.10953200 </i>
    <i name="ewald">  -2780.12334205 </i>
    <i name="hartreedc">  -2509.77596890 </i>
    <i name="XCdc">    231.67648187 </i>
    <i name="pawpsdc">   3595.50765025 </i>
    <i name="pawaedc">  -3697.82984300 </i>
    <i name="eentropy">      0.00000000 </i>
    <i name="bandstr">   -770.51180765 </i>
    <i name="atom">   5753.46335376 </i>
    <i name="e_fr_energy">    -39.48394372 </i>
    <i name="e_wo_entrp">    -39.48394372 </i>
    <i name="e_0_energy">    -39.48394372 </i>
   </energy>
  </scstep>
  <scstep>
   <time name="diag">    0.55    0.55</time>
   <time name="diis">    2.58    2.60</time>
   <time name="orth">    0.02    0.02</time>
   <time name="total">    3.65    3.68</time>
   <energy>
    <i name="e_fr_energy">    -39.47021884 </i>
    <i name="e_wo_entrp">    -39.47021884 </i>
    <i name="e_0_energy">    -39.47021884 </i>
   </energy>
  </scstep>
  <scstep>
   <time name="diag">    0.50    0.50</time>
   <time name="diis">    2.48    2.49</time>
   <time name="orth">    0.02    0.02</time>
   <time name="total">    3.52    3.54</time>
   <energy>
    <i name="e_fr_energy">    -39.46653687 </i>
    <i name="e_wo_entrp">    -39.46653687 </i>
    <i name="e_0_energy">    -39.46653687 </i>
   </energy>
  </scstep>
  <scstep>
   <time name="diag">    0.50    0.50</time>
   <time name="diis">    2.39    2.41</time>
   <time name="orth">    0.02    0.02</time>
   <time name="total">    3.42    3.44</time>
   <energy>
    <i name="e_fr_energy">    -39.46578854 </i>
    <i name="e_wo_entrp">    -39.46578854 </i>
    <i name="e_0_energy">    -39.46578854 </i>
   </energy>
  </scstep>
  <scstep>
   <time name="diag">    0.63    0.63</time>
   <time name="diis">    2.17    2.18</time>
   <time name="orth">    0.02    0.02</time>
   <time name="total">    3.15    3.17</time>
   <energy>
    <i name="alphaZ">    138.10953200 </i>
    <i name="ewald">  -2780.12334205 </i>
    <i name="hartreedc">  -2503.01055894 </i>
    <i name="XCdc">    231.31225523 </i>
    <i name="pawpsdc">   3597.52039031 </i>
    <i name="pawaedc">  -3699.80805658 </i>
    <i name="eentropy">      0.00000000 </i>
    <i name="bandstr">   -776.92948015 </i>
    <i name="atom">   5753.46335376 </i>
    <i name="e_fr_energy">    -39.46590643 </i>
    <i name="e_wo_entrp">    -39.46590643 </i>
    <i name="e_0_energy">    -39.46590643 </i>
   </energy>
  </scstep>
  <structure>
   <crystal>
    <varray name="basis" >
     <v>       1.30843023       3.01744037      -5.05989686 </v>
     <v>       1.30843376      -3.01741592      -5.05991052 </v>
     <v>      -5.64864771       0.00000815      -5.05950741 </v>
    </varray>
    <i name="volume">    212.43680701 </i>
    <varray name="rec_basis" >
     <v>       0.07186457       0.16570425      -0.08023237 </v>
     <v>       0.07186476      -0.16570380      -0.08023312 </v>
     <v>      -0.14374059       0.00000000      -0.03716964 </v>
    </varray>
   </crystal>
   <varray name="positions" >
    <v>       0.66667864       0.66667864       0.99996409 </v>
    <v>       0.33332136       0.33332136       0.00003591 </v>
    <v>       0.57697945       0.93418349       0.19749229 </v>
    <v>       0.70865522       0.42302055       0.80250771 </v>
    <v>       0.29134478       0.57697945       0.19749229 </v>
    <v>       0.06581651       0.70865522       0.80250771 </v>
    <v>       0.42302055       0.06581651       0.80250771 </v>
    <v>       0.93418349       0.29134478       0.19749229 </v>
   </varray>
  </structure>
  <varray name="forces" >
   <v>      -0.00565207       0.00000000      -0.00146156 </v>
   <v>       0.00565207      -0.00000000       0.00146156 </v>
   <v>      -0.05453651      -0.00141147      -0.01143350 </v>
   <v>       0.05387216      -0.00294355       0.01400264 </v>
   <v>      -0.05387216       0.00294355      -0.01400264 </v>
   <v>       0.05326011       0.00153208       0.01636953 </v>
   <v>       0.05453651       0.00141147       0.01143350 </v>
   <v>      -0.05326011      -0.00153208      -0.01636953 </v>
  </varray>
  <varray name="stress" >
   <v>       3.37267526       0.00072976      -0.31550476 </v>
   <v>      -0.00072976       4.59278028       0.00282209 </v>
   <v>      -0.31550476      -0.00282209       4.51119478 </v>
  </varray>
  <energy>
   <i name="e_fr_energy">    -39.46590643 </i>
   <i name="e_wo_entrp">    -39.46590643 </i>
   <i name="e_0_energy">    -39.46590643 </i>
  </energy>
  <time name="totalsc">   23.07   23.23</time>
 </calculation>
 <calculation>
  <scstep>
   <time name="dav">    4.21    4.24</time>
   <time name="total">    4.72    4.76</time>
   <energy>
    <i name="alphaZ">    137.69266373 </i>
    <i name="ewald">  -2776.83262550 </i>
    <i name="hartreedc">  -2501.05643974 </i>
    <i name="XCdc">    231.08344728 </i>
    <i name="pawpsdc">   3598.92075859 </i>
    <i name="pawaedc">  -3701.25690580 </i>
    <i name="eentropy">      0.00000000 </i>
    <i name="bandstr">   -781.48609626 </i>
    <i name="atom">   5753.46335376 </i>
    <i name="e_fr_energy">    -39.47184394 </i>
    <i name="e_wo_entrp">    -39.47184394 </i>
    <i name="e_0_energy">    -39.47184394 </i>
   </energy>
  </scstep>
  <scstep>
   <time name="diag">    0.49    0.49</time>
   <time name="diis">    2.62    2.64</time>
   <time name="orth">    0.02    0.03</time>
   <time name="total">    3.65    3.67</time>
   <energy>
    <i name="e_fr_energy">    -39.46799069 </i>
    <i name="e_wo_entrp">    -39.46799069 </i>
    <i name="e_0_energy">    -39.46799069 </i>
   </energy>
  </scstep>
  <scstep>
   <time name="diag">    0.50    0.51</time>
   <time name="diis">    2.33    2.34</time>
   <time name="orth">    0.02    0.02</time>
   <time name="total">    3.38    3.40</time>
   <energy>
    <i name="e_fr_energy">    -39.46684404 </i>
    <i name="e_wo_entrp">    -39.46684404 </i>
    <i name="e_0_energy">    -39.46684404 </i>
   </energy>
  </scstep>
  <scstep>
   <time name="diag">    0.50    0.50</time>
   <time name="diis">    2.13    2.14</time>
   <time name="orth">    0.02    0.02</time>
   <time name="total">    2.98    3.00</time>
   <energy>
    <i name="alphaZ">    137.69266373 </i>
    <i name="ewald">  -2776.83262550 </i>
    <i name="hartreedc">  -2504.69644280 </i>
    <i name="XCdc">    231.27682901 </i>
    <i name="pawpsdc">   3599.11049662 </i>
    <i name="pawaedc">  -3701.47717521 </i>
    <i name="eentropy">      0.00000000 </i>
    <i name="bandstr">   -778.00374385 </i>
    <i name="atom">   5753.46335376 </i>
    <i name="e_fr_energy">    -39.46664425 </i>
    <i name="e_wo_entrp">    -39.46664425 </i>
    <i name="e_0_energy">    -39.46664425 </i>
   </energy>
  </scstep>
  <structure>
   <crystal>
    <varray name="basis" >
     <v>       1.30969580       3.02035032      -5.06479103 </v>
     <v>       1.30969746      -3.02033884      -5.06479745 </v>
     <v>      -5.65492171       0.00000383      -5.06460817 </v>
    </varray>
    <i name="volume">    213.07996520 </i>
    <varray name="rec_basis" >
     <v>       0.07178926       0.16554413      -0.08015664 </v>
     <v>       0.07178935      -0.16554392      -0.08015699 </v>
     <v>      -0.14358388       0.00000000      -0.03712911 </v>
    </varray>
   </crystal>
   <varray name="positions" >
    <v>       0.66668096       0.66668096       0.99995713 </v>
    <v>       0.33331904       0.33331904       0.00004287 </v>
    <v>       0.57717691       0.93421299       0.19740762 </v>
    <v>       0.70879752       0.42282309       0.80259238 </v>
    <v>       0.29120248       0.57717691       0.19740762 </v>
    <v>       0.06578701       0.70879752       0.80259238 </v>
    <v>       0.42282309       0.06578701       0.80259238 </v>
    <v>       0.93421299       0.29120248       0.19740762 </v>
   </varray>
  </structure>
  <varray name="forces" >
   <v>      -0.01245203       0.00000000      -0.00321995 </v>
   <v>       0.01245203      -0.00000000       0.00321995 </v>
   <v>      -0.04650501      -0.02196771       0.02755241 </v>
   <v>       0.03687844      -0.04416794       0.00967500 </v>
   <v>      -0.03687844       0.04416794      -0.00967500 </v>
   <v>       0.02735269       0.02220023       0.04651249 </v>
   <v>       0.04650501       0.02196771      -0.02755241 </v>
   <v>      -0.02735269      -0.02220023      -0.04651249 </v>
  </varray>
  <varray name="stress" >
   <v>       2.94544787       0.00072499      -0.02714600 </v>
   <v>      -0.00072499       3.05042612       0.00280365 </v>
   <v>      -0.02714600      -0.00280365       3.04340673 </v>
  </varray>
  <energy>
   <i name="e_fr_energy">    -39.46664425 </i>
   <i name="e_wo_entrp">    -39.46664425 </i>
   <i name="e_0_energy">    -39.46664425 </i>
  </energy>
  <time name="totalsc">   19.06   19.19</time>
  <eigenvalues>
   <array>
    <dimension dim="1">band</dimension>
    <dimension dim="2">kpoint</dimension>
    <dimension dim="3">spin</dimension>
    <field>eigene</field>
    <field>occ</field>
    <set>
     <set comment="spin 1">
      <set comment="kpoint 1">
       <r>  -43.7058    1.0000 </r>
       <r>  -43.7057    1.0000 </r>
       <r>  -43.7021    1.0000 </r>
       <r>  -43.6983    1.0000 </r>
       <r>  -43.6922    1.0000 </r>
       <r>  -43.6921    1.0000 </r>
       <r>  -15.0904    1.0000 </r>
       <r>  -14.2294    1.0000 </r>
       <r>  -14.0917    1.0000 </r>
       <r>  -14.0917    1.0000 </r>
       <r>  -13.9922    1.0000 </r>
       <r>  -13.9922    1.0000 </r>
       <r>   -4.7673    1.0000 </r>
       <r>   -4.4644    1.0000 </r>
       <r>   -3.9024    1.0000 </r>
       <r>   -3.9023    1.0000 </r>
       <r>   -3.8674    1.0000 </r>
       <r>   -3.8674    1.0000 </r>
       <r>   -3.4150    1.0000 </r>
       <r>   -3.3803    1.0000 </r>
       <r>   -3.3803    1.0000 </r>
       <r>   -2.7593    1.0000 </r>
       <r>   -2.6566    1.0000 </r>
       <r>   -2.6566    1.0000 </r>
       <r>   -1.9129    1.0000 </r>
       <r>   -1.4445    1.0000 </r>
       <r>   -1.4445    1.0000 </r>
       <r>   -1.3620    1.0000 </r>
       <r>   -1.1132    1.0000 </r>
       <r>   -1.1132    1.0000 </r>
       <r>   -0.6032    1.0000 </r>
       <r>   -0.2718    1.0000 </r>
       <r>   -0.2715    1.0000 </r>
       <r>   -0.1999    1.0000 </r>
       <r>   -0.0119    1.0000 </r>
       <r>   -0.0116    1.0000 </r>
       <r>    2.0436    0.0000 </r>
       <r>    2.0439    0.0000 </r>
       <r>    2.2665    0.0000 </r>
       <r>    2.2667    0.0000 </r>
       <r>    5.8051    0.0000 </r>
       <r>    7.5379    0.0000 </r>
       <r>    8.1734    0.0000 </r>
       <r>    9.2368    0.0000 </r>
       <r>    9.2368    0.0000 </r>
       <r>    9.3286    0.0000 </r>
       <r>    9.3286    0.0000 </r>
       <r>    9.4482    0.0000 </r>
       <r>    9.6686    0.0000 </r>
       <r>    9.9417    0.0000 </r>
       <r>   10.2145    0.0000 </r>
       <r>   11.0598    0.0000 </r>
       <r>   11.0598    0.0000 </r>
       <r>   11.2508    0.0000 </r>
       <r>   11.2508    0.0000 </r>
       <r>   11.5999    0.0000 </r>
       <r>   11.6942    0.0000 </r>
       <r>   11.6942    0.0000 </r>
       <r>   11.9551    0.0000 </r>
       <r>   12.6297    0.0000 </r>
       <r>   12.9029    0.0000 </r>
       <r>   12.9030    0.0000 </r>
       <r>   13.1220    0.0000 </r>
       <r>   13.4866    0.0000 </r>
      </set>
      <set comment="kpoint 2">
       <r>  -43.7062    1.0000 </r>
       <r>  -43.7043    1.0000 </r>
       <r>  -43.7016    1.0000 </r>
       <r>  -43.6988    1.0000 </r>
       <r>  -43.6937    1.0000 </r>
       <r>  -43.6916    1.0000 </r>
       <r>  -14.9637    1.0000 </r>
       <r>  -14.2354    1.0000 </r>
       <r>  -14.1869    1.0000 </r>
       <r>  -14.1192    1.0000 </r>
       <r>  -14.0149    1.0000 </r>
       <r>  -14.0092    1.0000 </r>
       <r>   -4.7743    1.0000 </r>
       <r>   -4.3766    1.0000 </r>
       <r>   -3.9478    1.0000 </r>
       <r>   -3.9201    1.0000 </r>
       <r>   -3.9015    1.0000 </r>
       <r>   -3.6301    1.0000 </r>
       <r>   -3.5308    1.0000 </r>
       <r>   -3.3466    1.0000 </r>
       <r>   -3.3094    1.0000 </r>
       <r>   -2.7178    1.0000 </r>
       <r>   -2.3549    1.0000 </r>
       <r>   -2.3003    1.0000 </r>
       <r>   -2.0274    1.0000 </r>
       <r>   -1.8509    1.0000 </r>
       <r>   -1.6912    1.0000 </r>
       <r>   -1.5877    1.0000 </r>
       <r>   -1.2203    1.0000 </r>
       <r>   -1.1657    1.0000 </r>
       <r>   -0.5273    1.0000 </r>
       <r>   -0.3075    1.0000 </r>
       <r>   -0.2507    1.0000 </r>
       <r>   -0.0809    1.0000 </r>
       <r>   -0.0019    1.0000 </r>
       <r>    0.1127    1.0000 </r>
       <r>    2.0269    0.0000 </r>
       <r>    2.0702    0.0000 </r>
       <r>    2.1148    0.0000 </r>
       <r>    2.2183    0.0000 </r>
       <r>    6.5038    0.0000 </r>
       <r>    7.8344    0.0000 </r>
       <r>    8.2825    0.0000 </r>
       <r>    8.4278    0.0000 </r>
       <r>    8.4780    0.0000 </r>
       <r>    8.8437    0.0000 </r>
       <r>    9.6190    0.0000 </r>
       <r>    9.7204    0.0000 </r>
       <r>    9.9466    0.0000 </r>
       <r>   10.2761    0.0000 </r>
       <r>   10.4267    0.0000 </r>
       <r>   10.5340    0.0000 </r>
       <r>   10.7493    0.0000 </r>
       <r>   10.9347    0.0000 </r>
       <r>   11.2141    0.0000 </r>
       <r>   11.3890    0.0000 </r>
       <r>   11.7720    0.0000 </r>
       <r>   11.8683    0.0000 </r>
       <r>   12.1472    0.0000 </r>
       <r>   12.3576    0.0000 </r>
       <r>   12.4793    0.0000 </r>
       <r>   12.9157    0.0000 </r>
       <r>   13.2876    0.0000 </r>
       <r>   13.5107    0.0000 </r>
      </set>
      <set comment="kpoint 3">
       <r>  -43.7067    1.0000 </r>
       <r>  -43.7022    1.0000 </r>
       <r>  -43.7009    1.0000 </r>
       <r>  -43.6996    1.0000 </r>
       <r>  -43.6958    1.0000 </r>
       <r>  -43.6912    1.0000 </r>
       <r>  -14.7337    1.0000 </r>
       <r>  -14.4819    1.0000 </r>
       <r>  -14.1496    1.0000 </r>
       <r>  -14.0962    1.0000 </r>
       <r>  -14.0718    1.0000 </r>
       <r>  -14.0381    1.0000 </r>
       <r>   -4.7887    1.0000 </r>
       <r>   -4.2167    1.0000 </r>
       <r>   -3.9728    1.0000 </r>
       <r>   -3.9318    1.0000 </r>
       <r>   -3.6998    1.0000 </r>
       <r>   -3.6710    1.0000 </r>
       <r>   -3.5867    1.0000 </r>
       <r>   -3.1264    1.0000 </r>
       <r>   -2.9983    1.0000 </r>
       <r>   -2.9383    1.0000 </r>
       <r>   -2.6206    1.0000 </r>
       <r>   -2.5040    1.0000 </r>
       <r>   -2.0348    1.0000 </r>
       <r>   -1.8817    1.0000 </r>
       <r>   -1.6160    1.0000 </r>
       <r>   -1.5724    1.0000 </r>
       <r>   -1.2668    1.0000 </r>
       <r>   -1.1649    1.0000 </r>
       <r>   -0.6321    1.0000 </r>
       <r>   -0.3134    1.0000 </r>
       <r>   -0.2562    1.0000 </r>
       <r>   -0.0479    1.0000 </r>
       <r>    0.0082    1.0000 </r>
       <r>    0.2108    1.0000 </r>
       <r>    2.0081    0.0000 </r>
       <r>    2.0719    0.0000 </r>
       <r>    2.1118    0.0000 </r>
       <r>    2.1483    0.0000 </r>
       <r>    7.3972    0.0000 </r>
       <r>    7.6727    0.0000 </r>
       <r>    7.7731    0.0000 </r>
       <r>    7.8434    0.0000 </r>
       <r>    8.6785    0.0000 </r>
       <r>    9.3532    0.0000 </r>
       <r>    9.4746    0.0000 </r>
       <r>    9.5470    0.0000 </r>
       <r>    9.6291    0.0000 </r>
       <r>    9.9366    0.0000 </r>
       <r>   10.2059    0.0000 </r>
       <r>   10.4430    0.0000 </r>
       <r>   10.5530    0.0000 </r>
       <r>   10.8244    0.0000 </r>
       <r>   11.0979    0.0000 </r>
       <r>   11.5643    0.0000 </r>
       <r>   11.7580    0.0000 </r>
       <r>   11.8432    0.0000 </r>
       <r>   12.4108    0.0000 </r>
       <r>   12.4701    0.0000 </r>
       <r>   12.5557    0.0000 </r>
       <r>   12.7999    0.0000 </r>
       <r>   13.5119    0.0000 </r>
       <r>   13.6559    0.0000 </r>
      </set>
      <set comment="kpoint 4">
       <r>  -43.7063    1.0000 </r>
       <r>  -43.7042    1.0000 </r>
       <r>  -43.7016    1.0000 </r>
       <r>  -43.6988    1.0000 </r>
       <r>  -43.6936    1.0000 </r>
       <r>  -43.6917    1.0000 </r>
       <r>  -14.9606    1.0000 </r>
       <r>  -14.2322    1.0000 </r>
       <r>  -14.1911    1.0000 </r>
       <r>  -14.1228    1.0000 </r>
       <r>  -14.0128    1.0000 </r>
       <r>  -14.0111    1.0000 </r>
       <r>   -4.7718    1.0000 </r>
       <r>   -4.3559    1.0000 </r>
       <r>   -3.9721    1.0000 </r>
       <r>   -3.9170    1.0000 </r>
       <r>   -3.8744    1.0000 </r>
       <r>   -3.6156    1.0000 </r>
       <r>   -3.5404    1.0000 </r>
       <r>   -3.3466    1.0000 </r>
       <r>   -3.3022    1.0000 </r>
       <r>   -2.6902    1.0000 </r>
       <r>   -2.3587    1.0000 </r>
       <r>   -2.3385    1.0000 </r>
       <r>   -2.0274    1.0000 </r>
       <r>   -1.8467    1.0000 </r>
       <r>   -1.7309    1.0000 </r>
       <r>   -1.5810    1.0000 </r>
       <r>   -1.2282    1.0000 </r>
       <r>   -1.2053    1.0000 </r>
       <r>   -0.5254    1.0000 </r>
       <r>   -0.3013    1.0000 </r>
       <r>   -0.2484    1.0000 </r>
       <r>   -0.0654    1.0000 </r>
       <r>    0.0146    1.0000 </r>
       <r>    0.0979    1.0000 </r>
       <r>    2.0379    0.0000 </r>
       <r>    2.0554    0.0000 </r>
       <r>    2.0994    0.0000 </r>
       <r>    2.2167    0.0000 </r>
       <r>    6.6389    0.0000 </r>
       <r>    7.8472    0.0000 </r>
       <r>    8.2217    0.0000 </r>
       <r>    8.3556    0.0000 </r>
       <r>    8.7223    0.0000 </r>
       <r>    8.9874    0.0000 </r>
       <r>    9.4700    0.0000 </r>
       <r>    9.5960    0.0000 </r>
       <r>    9.9287    0.0000 </r>
       <r>   10.0707    0.0000 </r>
       <r>   10.3685    0.0000 </r>
       <r>   10.6655    0.0000 </r>
       <r>   10.8280    0.0000 </r>
       <r>   11.1487    0.0000 </r>
       <r>   11.3264    0.0000 </r>
       <r>   11.5046    0.0000 </r>
       <r>   11.6117    0.0000 </r>
       <r>   11.6934    0.0000 </r>
       <r>   11.8861    0.0000 </r>
       <r>   12.3160    0.0000 </r>
       <r>   12.4399    0.0000 </r>
       <r>   12.7580    0.0000 </r>
       <r>   13.2883    0.0000 </r>
       <r>   13.5714    0.0000 </r>
      </set>
      <set comment="kpoint 5">
       <r>  -43.7069    1.0000 </r>
       <r>  -43.7015    1.0000 </r>
       <r>  -43.7009    1.0000 </r>
       <r>  -43.6995    1.0000 </r>
       <r>  -43.6964    1.0000 </r>
       <r>  -43.6910    1.0000 </r>
       <r>  -14.7484    1.0000 </r>
       <r>  -14.4294    1.0000 </r>
       <r>  -14.1950    1.0000 </r>
       <r>  -14.1202    1.0000 </r>
       <r>  -14.0453    1.0000 </r>
       <r>  -14.0351    1.0000 </r>
       <r>   -4.5894    1.0000 </r>
       <r>   -4.3243    1.0000 </r>
       <r>   -4.0497    1.0000 </r>
       <r>   -3.9140    1.0000 </r>
       <r>   -3.8321    1.0000 </r>
       <r>   -3.5976    1.0000 </r>
       <r>   -3.5337    1.0000 </r>
       <r>   -3.4421    1.0000 </r>
       <r>   -3.0446    1.0000 </r>
       <r>   -2.6475    1.0000 </r>
       <r>   -2.6125    1.0000 </r>
       <r>   -2.2025    1.0000 </r>
       <r>   -2.0085    1.0000 </r>
       <r>   -1.8185    1.0000 </r>
       <r>   -1.7637    1.0000 </r>
       <r>   -1.6764    1.0000 </r>
       <r>   -1.4407    1.0000 </r>
       <r>   -1.2974    1.0000 </r>
       <r>   -0.4909    1.0000 </r>
       <r>   -0.2990    1.0000 </r>
       <r>   -0.1912    1.0000 </r>
       <r>   -0.0308    1.0000 </r>
       <r>    0.0688    1.0000 </r>
       <r>    0.0974    1.0000 </r>
       <r>    1.9690    0.0000 </r>
       <r>    2.0561    0.0000 </r>
       <r>    2.1007    0.0000 </r>
       <r>    2.2373    0.0000 </r>
       <r>    7.4556    0.0000 </r>
       <r>    7.6329    0.0000 </r>
       <r>    7.6891    0.0000 </r>
       <r>    8.2865    0.0000 </r>
       <r>    8.4168    0.0000 </r>
       <r>    8.8056    0.0000 </r>
       <r>    9.2573    0.0000 </r>
       <r>    9.4181    0.0000 </r>
       <r>    9.6917    0.0000 </r>
       <r>   10.1357    0.0000 </r>
       <r>   10.3335    0.0000 </r>
       <r>   10.6657    0.0000 </r>
       <r>   10.9152    0.0000 </r>
       <r>   11.0880    0.0000 </r>
       <r>   11.2627    0.0000 </r>
       <r>   11.5465    0.0000 </r>
       <r>   11.6870    0.0000 </r>
       <r>   11.8291    0.0000 </r>
       <r>   11.9948    0.0000 </r>
       <r>   12.3455    0.0000 </r>
       <r>   12.5682    0.0000 </r>
       <r>   13.2239    0.0000 </r>
       <r>   13.4209    0.0000 </r>
       <r>   13.7283    0.0000 </r>
      </set>
      <set comment="kpoint 6">
       <r>  -43.7069    1.0000 </r>
       <r>  -43.7015    1.0000 </r>
       <r>  -43.7009    1.0000 </r>
       <r>  -43.6995    1.0000 </r>
       <r>  -43.6964    1.0000 </r>
       <r>  -43.6910    1.0000 </r>
       <r>  -14.7543    1.0000 </r>
       <r>  -14.4276    1.0000 </r>
       <r>  -14.1938    1.0000 </r>
       <r>  -14.1113    1.0000 </r>
       <r>  -14.0444    1.0000 </r>
       <r>  -14.0406    1.0000 </r>
       <r>   -4.5976    1.0000 </r>
       <r>   -4.3499    1.0000 </r>
       <r>   -4.0301    1.0000 </r>
       <r>   -3.9319    1.0000 </r>
       <r>   -3.8195    1.0000 </r>
       <r>   -3.6365    1.0000 </r>
       <r>   -3.5187    1.0000 </r>
       <r>   -3.4433    1.0000 </r>
       <r>   -3.0407    1.0000 </r>
       <r>   -2.6438    1.0000 </r>
       <r>   -2.6254    1.0000 </r>
       <r>   -2.1742    1.0000 </r>
       <r>   -2.0001    1.0000 </r>
       <r>   -1.8251    1.0000 </r>
       <r>   -1.7654    1.0000 </r>
       <r>   -1.6232    1.0000 </r>
       <r>   -1.4495    1.0000 </r>
       <r>   -1.2900    1.0000 </r>
       <r>   -0.4890    1.0000 </r>
       <r>   -0.2825    1.0000 </r>
       <r>   -0.1888    1.0000 </r>
       <r>   -0.0317    1.0000 </r>
       <r>    0.0410    1.0000 </r>
       <r>    0.0907    1.0000 </r>
       <r>    2.0110    0.0000 </r>
       <r>    2.0448    0.0000 </r>
       <r>    2.0913    0.0000 </r>
       <r>    2.2426    0.0000 </r>
       <r>    7.2920    0.0000 </r>
       <r>    7.4184    0.0000 </r>
       <r>    7.8428    0.0000 </r>
       <r>    8.2739    0.0000 </r>
       <r>    8.3521    0.0000 </r>
       <r>    8.8098    0.0000 </r>
       <r>    9.1859    0.0000 </r>
       <r>    9.5497    0.0000 </r>
       <r>    9.7647    0.0000 </r>
       <r>   10.0559    0.0000 </r>
       <r>   10.2661    0.0000 </r>
       <r>   10.6947    0.0000 </r>
       <r>   10.9583    0.0000 </r>
       <r>   11.1106    0.0000 </r>
       <r>   11.5430    0.0000 </r>
       <r>   11.6281    0.0000 </r>
       <r>   11.8243    0.0000 </r>
       <r>   12.0215    0.0000 </r>
       <r>   12.1502    0.0000 </r>
       <r>   12.2950    0.0000 </r>
       <r>   12.5474    0.0000 </r>
       <r>   12.9335    0.0000 </r>
       <r>   13.4057    0.0000 </r>
       <r>   13.6862    0.0000 </r>
      </set>
      <set comment="kpoint 7">
       <r>  -43.7069    1.0000 </r>
       <r>  -43.7015    1.0000 </r>
       <r>  -43.7009    1.0000 </r>
       <r>  -43.6995    1.0000 </r>
       <r>  -43.6964    1.0000 </r>
       <r>  -43.6910    1.0000 </r>
       <r>  -14.7476    1.0000 </r>
       <r>  -14.4309    1.0000 </r>
       <r>  -14.1960    1.0000 </r>
       <r>  -14.1195    1.0000 </r>
       <r>  -14.0443    1.0000 </r>
       <r>  -14.0350    1.0000 </r>
       <r>   -4.6010    1.0000 </r>
       <r>   -4.3310    1.0000 </r>
       <r>   -4.0086    1.0000 </r>
       <r>   -3.9112    1.0000 </r>
       <r>   -3.7933    1.0000 </r>
       <r>   -3.6739    1.0000 </r>
       <r>   -3.5400    1.0000 </r>
       <r>   -3.4430    1.0000 </r>
       <r>   -3.0321    1.0000 </r>
       <r>   -2.6412    1.0000 </r>
       <r>   -2.6282    1.0000 </r>
       <r>   -2.1534    1.0000 </r>
       <r>   -2.0247    1.0000 </r>
       <r>   -1.8203    1.0000 </r>
       <r>   -1.7675    1.0000 </r>
       <r>   -1.6316    1.0000 </r>
       <r>   -1.4562    1.0000 </r>
       <r>   -1.3565    1.0000 </r>
       <r>   -0.4880    1.0000 </r>
       <r>   -0.2453    1.0000 </r>
       <r>   -0.2106    1.0000 </r>
       <r>   -0.0155    1.0000 </r>
       <r>    0.0268    1.0000 </r>
       <r>    0.0983    1.0000 </r>
       <r>    1.9988    0.0000 </r>
       <r>    2.0524    0.0000 </r>
       <r>    2.0825    0.0000 </r>
       <r>    2.2404    0.0000 </r>
       <r>    7.2889    0.0000 </r>
       <r>    7.6794    0.0000 </r>
       <r>    8.0196    0.0000 </r>
       <r>    8.1724    0.0000 </r>
       <r>    8.3329    0.0000 </r>
       <r>    8.9380    0.0000 </r>
       <r>    9.1135    0.0000 </r>
       <r>    9.2935    0.0000 </r>
       <r>    9.7038    0.0000 </r>
       <r>    9.9619    0.0000 </r>
       <r>   10.1566    0.0000 </r>
       <r>   10.8728    0.0000 </r>
       <r>   10.9944    0.0000 </r>
       <r>   11.1078    0.0000 </r>
       <r>   11.4833    0.0000 </r>
       <r>   11.6259    0.0000 </r>
       <r>   11.7990    0.0000 </r>
       <r>   11.8552    0.0000 </r>
       <r>   12.1407    0.0000 </r>
       <r>   12.2942    0.0000 </r>
       <r>   12.5257    0.0000 </r>
       <r>   13.0735    0.0000 </r>
       <r>   13.5140    0.0000 </r>
       <r>   13.8113    0.0000 </r>
      </set>
      <set comment="kpoint 8">
       <r>  -43.7067    1.0000 </r>
       <r>  -43.7021    1.0000 </r>
       <r>  -43.7009    1.0000 </r>
       <r>  -43.6996    1.0000 </r>
       <r>  -43.6957    1.0000 </r>
       <r>  -43.6912    1.0000 </r>
       <r>  -14.7266    1.0000 </r>
       <r>  -14.4765    1.0000 </r>
       <r>  -14.1568    1.0000 </r>
       <r>  -14.1053    1.0000 </r>
       <r>  -14.0780    1.0000 </r>
       <r>  -14.0310    1.0000 </r>
       <r>   -4.7736    1.0000 </r>
       <r>   -4.1979    1.0000 </r>
       <r>   -4.0022    1.0000 </r>
       <r>   -3.8891    1.0000 </r>
       <r>   -3.7241    1.0000 </r>
       <r>   -3.6326    1.0000 </r>
       <r>   -3.5775    1.0000 </r>
       <r>   -3.1109    1.0000 </r>
       <r>   -2.9843    1.0000 </r>
       <r>   -2.9326    1.0000 </r>
       <r>   -2.5517    1.0000 </r>
       <r>   -2.5028    1.0000 </r>
       <r>   -2.1800    1.0000 </r>
       <r>   -1.8918    1.0000 </r>
       <r>   -1.6636    1.0000 </r>
       <r>   -1.6055    1.0000 </r>
       <r>   -1.2840    1.0000 </r>
       <r>   -1.1671    1.0000 </r>
       <r>   -0.6253    1.0000 </r>
       <r>   -0.3134    1.0000 </r>
       <r>   -0.2452    1.0000 </r>
       <r>   -0.0370    1.0000 </r>
       <r>    0.0390    1.0000 </r>
       <r>    0.1873    1.0000 </r>
       <r>    1.9582    0.0000 </r>
       <r>    2.0697    0.0000 </r>
       <r>    2.1265    0.0000 </r>
       <r>    2.1424    0.0000 </r>
       <r>    7.5590    0.0000 </r>
       <r>    7.7853    0.0000 </r>
       <r>    7.8246    0.0000 </r>
       <r>    8.2032    0.0000 </r>
       <r>    8.5822    0.0000 </r>
       <r>    9.0334    0.0000 </r>
       <r>    9.3513    0.0000 </r>
       <r>    9.6060    0.0000 </r>
       <r>    9.9235    0.0000 </r>
       <r>   10.0506    0.0000 </r>
       <r>   10.2056    0.0000 </r>
       <r>   10.3948    0.0000 </r>
       <r>   10.7380    0.0000 </r>
       <r>   11.0644    0.0000 </r>
       <r>   11.1966    0.0000 </r>
       <r>   11.2561    0.0000 </r>
       <r>   11.3490    0.0000 </r>
       <r>   11.4824    0.0000 </r>
       <r>   11.9795    0.0000 </r>
       <r>   12.0855    0.0000 </r>
       <r>   12.4466    0.0000 </r>
       <r>   12.9973    0.0000 </r>
       <r>   13.2871    0.0000 </r>
       <r>   13.8226    0.0000 </r>
      </set>
      <set comment="kpoint 9">
       <r>  -43.7058    1.0000 </r>
       <r>  -43.7057    1.0000 </r>
       <r>  -43.7021    1.0000 </r>
       <r>  -43.6984    1.0000 </r>
       <r>  -43.6922    1.0000 </r>
       <r>  -43.6921    1.0000 </r>
       <r>  -15.0771    1.0000 </r>
       <r>  -14.2485    1.0000 </r>
       <r>  -14.0931    1.0000 </r>
       <r>  -14.0931    1.0000 </r>
       <r>  -13.9909    1.0000 </r>
       <r>  -13.9909    1.0000 </r>
       <r>   -4.7782    1.0000 </r>
       <r>   -4.3266    1.0000 </r>
       <r>   -3.8922    1.0000 </r>
       <r>   -3.8922    1.0000 </r>
       <r>   -3.8561    1.0000 </r>
       <r>   -3.8561    1.0000 </r>
       <r>   -3.3967    1.0000 </r>
       <r>   -3.3901    1.0000 </r>
       <r>   -3.3900    1.0000 </r>
       <r>   -2.7716    1.0000 </r>
       <r>   -2.6524    1.0000 </r>
       <r>   -2.6523    1.0000 </r>
       <r>   -1.9243    1.0000 </r>
       <r>   -1.6434    1.0000 </r>
       <r>   -1.4728    1.0000 </r>
       <r>   -1.4728    1.0000 </r>
       <r>   -1.1170    1.0000 </r>
       <r>   -1.1170    1.0000 </r>
       <r>   -0.6034    1.0000 </r>
       <r>   -0.2716    1.0000 </r>
       <r>   -0.2714    1.0000 </r>
       <r>   -0.1363    1.0000 </r>
       <r>   -0.0026    1.0000 </r>
       <r>   -0.0023    1.0000 </r>
       <r>    2.0140    0.0000 </r>
       <r>    2.0143    0.0000 </r>
       <r>    2.2621    0.0000 </r>
       <r>    2.2623    0.0000 </r>
       <r>    6.5738    0.0000 </r>
       <r>    7.5334    0.0000 </r>
       <r>    7.8766    0.0000 </r>
       <r>    8.6179    0.0000 </r>
       <r>    9.2495    0.0000 </r>
       <r>    9.2495    0.0000 </r>
       <r>    9.4003    0.0000 </r>
       <r>    9.9802    0.0000 </r>
       <r>   10.1206    0.0000 </r>
       <r>   10.1206    0.0000 </r>
       <r>   10.4325    0.0000 </r>
       <r>   10.5373    0.0000 </r>
       <r>   10.5373    0.0000 </r>
       <r>   11.2955    0.0000 </r>
       <r>   11.2956    0.0000 </r>
       <r>   11.5642    0.0000 </r>
       <r>   11.5642    0.0000 </r>
       <r>   11.6460    0.0000 </r>
       <r>   11.8600    0.0000 </r>
       <r>   12.7655    0.0000 </r>
       <r>   12.7890    0.0000 </r>
       <r>   12.7890    0.0000 </r>
       <r>   12.9124    0.0000 </r>
       <r>   14.0424    0.0000 </r>
      </set>
      <set comment="kpoint 10">
       <r>  -43.7062    1.0000 </r>
       <r>  -43.7043    1.0000 </r>
       <r>  -43.7016    1.0000 </r>
       <r>  -43.6988    1.0000 </r>
       <r>  -43.6937    1.0000 </r>
       <r>  -43.6916    1.0000 </r>
       <r>  -14.9565    1.0000 </r>
       <r>  -14.2328    1.0000 </r>
       <r>  -14.1968    1.0000 </r>
       <r>  -14.1238    1.0000 </r>
       <r>  -14.0123    1.0000 </r>
       <r>  -14.0100    1.0000 </r>
       <r>   -4.7718    1.0000 </r>
       <r>   -4.3258    1.0000 </r>
       <r>   -3.9715    1.0000 </r>
       <r>   -3.9054    1.0000 </r>
       <r>   -3.8664    1.0000 </r>
       <r>   -3.6131    1.0000 </r>
       <r>   -3.5470    1.0000 </r>
       <r>   -3.3498    1.0000 </r>
       <r>   -3.3035    1.0000 </r>
       <r>   -2.6876    1.0000 </r>
       <r>   -2.3603    1.0000 </r>
       <r>   -2.3464    1.0000 </r>
       <r>   -2.0237    1.0000 </r>
       <r>   -1.8458    1.0000 </r>
       <r>   -1.7661    1.0000 </r>
       <r>   -1.5865    1.0000 </r>
       <r>   -1.2532    1.0000 </r>
       <r>   -1.2300    1.0000 </r>
       <r>   -0.5251    1.0000 </r>
       <r>   -0.2989    1.0000 </r>
       <r>   -0.2481    1.0000 </r>
       <r>   -0.0525    1.0000 </r>
       <r>    0.0243    1.0000 </r>
       <r>    0.0993    1.0000 </r>
       <r>    2.0287    0.0000 </r>
       <r>    2.0565    0.0000 </r>
       <r>    2.0872    0.0000 </r>
       <r>    2.2162    0.0000 </r>
       <r>    6.8507    0.0000 </r>
       <r>    7.8617    0.0000 </r>
       <r>    8.2278    0.0000 </r>
       <r>    8.3425    0.0000 </r>
       <r>    8.7411    0.0000 </r>
       <r>    9.0589    0.0000 </r>
       <r>    9.2517    0.0000 </r>
       <r>    9.5427    0.0000 </r>
       <r>    9.9097    0.0000 </r>
       <r>   10.2464    0.0000 </r>
       <r>   10.4248    0.0000 </r>
       <r>   10.5783    0.0000 </r>
       <r>   10.7921    0.0000 </r>
       <r>   11.1519    0.0000 </r>
       <r>   11.2306    0.0000 </r>
       <r>   11.3480    0.0000 </r>
       <r>   11.5949    0.0000 </r>
       <r>   11.7105    0.0000 </r>
       <r>   11.7970    0.0000 </r>
       <r>   12.3106    0.0000 </r>
       <r>   12.4426    0.0000 </r>
       <r>   12.8826    0.0000 </r>
       <r>   13.1973    0.0000 </r>
       <r>   13.8094    0.0000 </r>
      </set>
      <set comment="kpoint 11">
       <r>  -43.7067    1.0000 </r>
       <r>  -43.7022    1.0000 </r>
       <r>  -43.7009    1.0000 </r>
       <r>  -43.6996    1.0000 </r>
       <r>  -43.6958    1.0000 </r>
       <r>  -43.6912    1.0000 </r>
       <r>  -14.7284    1.0000 </r>
       <r>  -14.4777    1.0000 </r>
       <r>  -14.1552    1.0000 </r>
       <r>  -14.1041    1.0000 </r>
       <r>  -14.0753    1.0000 </r>
       <r>  -14.0328    1.0000 </r>
       <r>   -4.7774    1.0000 </r>
       <r>   -4.2006    1.0000 </r>
       <r>   -3.9950    1.0000 </r>
       <r>   -3.9037    1.0000 </r>
       <r>   -3.7166    1.0000 </r>
       <r>   -3.6501    1.0000 </r>
       <r>   -3.5727    1.0000 </r>
       <r>   -3.1143    1.0000 </r>
       <r>   -2.9887    1.0000 </r>
       <r>   -2.9339    1.0000 </r>
       <r>   -2.5671    1.0000 </r>
       <r>   -2.5027    1.0000 </r>
       <r>   -2.1449    1.0000 </r>
       <r>   -1.8894    1.0000 </r>
       <r>   -1.6437    1.0000 </r>
       <r>   -1.6066    1.0000 </r>
       <r>   -1.2779    1.0000 </r>
       <r>   -1.1666    1.0000 </r>
       <r>   -0.6272    1.0000 </r>
       <r>   -0.3016    1.0000 </r>
       <r>   -0.2635    1.0000 </r>
       <r>   -0.0399    1.0000 </r>
       <r>    0.0367    1.0000 </r>
       <r>    0.1922    1.0000 </r>
       <r>    1.9723    0.0000 </r>
       <r>    2.0708    0.0000 </r>
       <r>    2.1135    0.0000 </r>
       <r>    2.1514    0.0000 </r>
       <r>    7.4151    0.0000 </r>
       <r>    7.7606    0.0000 </r>
       <r>    7.8750    0.0000 </r>
       <r>    8.2036    0.0000 </r>
       <r>    8.5840    0.0000 </r>
       <r>    9.1557    0.0000 </r>
       <r>    9.4364    0.0000 </r>
       <r>    9.5240    0.0000 </r>
       <r>    9.8791    0.0000 </r>
       <r>    9.9522    0.0000 </r>
       <r>   10.0852    0.0000 </r>
       <r>   10.3873    0.0000 </r>
       <r>   10.5967    0.0000 </r>
       <r>   10.9383    0.0000 </r>
       <r>   11.2622    0.0000 </r>
       <r>   11.3617    0.0000 </r>
       <r>   11.5280    0.0000 </r>
       <r>   11.7255    0.0000 </r>
       <r>   12.0109    0.0000 </r>
       <r>   12.3077    0.0000 </r>
       <r>   12.4000    0.0000 </r>
       <r>   12.7749    0.0000 </r>
       <r>   13.4180    0.0000 </r>
       <r>   14.0700    0.0000 </r>
      </set>
      <set comment="kpoint 12">
       <r>  -43.7062    1.0000 </r>
       <r>  -43.7043    1.0000 </r>
       <r>  -43.7016    1.0000 </r>
       <r>  -43.6988    1.0000 </r>
       <r>  -43.6937    1.0000 </r>
       <r>  -43.6916    1.0000 </r>
       <r>  -14.9494    1.0000 </r>
       <r>  -14.2385    1.0000 </r>
       <r>  -14.2067    1.0000 </r>
       <r>  -14.1217    1.0000 </r>
       <r>  -14.0124    1.0000 </r>
       <r>  -14.0059    1.0000 </r>
       <r>   -4.7748    1.0000 </r>
       <r>   -4.2706    1.0000 </r>
       <r>   -3.9205    1.0000 </r>
       <r>   -3.8928    1.0000 </r>
       <r>   -3.8817    1.0000 </r>
       <r>   -3.6283    1.0000 </r>
       <r>   -3.5541    1.0000 </r>
       <r>   -3.3568    1.0000 </r>
       <r>   -3.3174    1.0000 </r>
       <r>   -2.7180    1.0000 </r>
       <r>   -2.3642    1.0000 </r>
       <r>   -2.3070    1.0000 </r>
       <r>   -2.0148    1.0000 </r>
       <r>   -1.8429    1.0000 </r>
       <r>   -1.8184    1.0000 </r>
       <r>   -1.6191    1.0000 </r>
       <r>   -1.3140    1.0000 </r>
       <r>   -1.2286    1.0000 </r>
       <r>   -0.5269    1.0000 </r>
       <r>   -0.2996    1.0000 </r>
       <r>   -0.2537    1.0000 </r>
       <r>   -0.0429    1.0000 </r>
       <r>    0.0357    1.0000 </r>
       <r>    0.1214    1.0000 </r>
       <r>    2.0086    0.0000 </r>
       <r>    2.0615    0.0000 </r>
       <r>    2.0744    0.0000 </r>
       <r>    2.2160    0.0000 </r>
       <r>    7.4149    0.0000 </r>
       <r>    7.7228    0.0000 </r>
       <r>    8.1484    0.0000 </r>
       <r>    8.5103    0.0000 </r>
       <r>    8.6794    0.0000 </r>
       <r>    8.8680    0.0000 </r>
       <r>    9.2346    0.0000 </r>
       <r>    9.6779    0.0000 </r>
       <r>    9.9165    0.0000 </r>
       <r>   10.0663    0.0000 </r>
       <r>   10.1421    0.0000 </r>
       <r>   10.5323    0.0000 </r>
       <r>   10.6063    0.0000 </r>
       <r>   10.6731    0.0000 </r>
       <r>   11.2599    0.0000 </r>
       <r>   11.4029    0.0000 </r>
       <r>   11.7769    0.0000 </r>
       <r>   11.8516    0.0000 </r>
       <r>   12.1070    0.0000 </r>
       <r>   12.4094    0.0000 </r>
       <r>   12.4460    0.0000 </r>
       <r>   12.9367    0.0000 </r>
       <r>   13.4805    0.0000 </r>
       <r>   13.8813    0.0000 </r>
      </set>
      <set comment="kpoint 13">
       <r>  -43.7063    1.0000 </r>
       <r>  -43.7042    1.0000 </r>
       <r>  -43.7016    1.0000 </r>
       <r>  -43.6988    1.0000 </r>
       <r>  -43.6936    1.0000 </r>
       <r>  -43.6917    1.0000 </r>
       <r>  -14.9608    1.0000 </r>
       <r>  -14.2371    1.0000 </r>
       <r>  -14.1910    1.0000 </r>
       <r>  -14.1189    1.0000 </r>
       <r>  -14.0152    1.0000 </r>
       <r>  -14.0074    1.0000 </r>
       <r>   -4.7750    1.0000 </r>
       <r>   -4.3543    1.0000 </r>
       <r>   -3.9396    1.0000 </r>
       <r>   -3.9134    1.0000 </r>
       <r>   -3.9004    1.0000 </r>
       <r>   -3.6321    1.0000 </r>
       <r>   -3.5337    1.0000 </r>
       <r>   -3.3498    1.0000 </r>
       <r>   -3.3134    1.0000 </r>
       <r>   -2.7262    1.0000 </r>
       <r>   -2.3567    1.0000 </r>
       <r>   -2.2916    1.0000 </r>
       <r>   -2.0234    1.0000 </r>
       <r>   -1.8508    1.0000 </r>
       <r>   -1.7097    1.0000 </r>
       <r>   -1.5975    1.0000 </r>
       <r>   -1.2243    1.0000 </r>
       <r>   -1.1972    1.0000 </r>
       <r>   -0.5277    1.0000 </r>
       <r>   -0.3065    1.0000 </r>
       <r>   -0.2520    1.0000 </r>
       <r>   -0.0711    1.0000 </r>
       <r>    0.0023    1.0000 </r>
       <r>    0.1188    1.0000 </r>
       <r>    2.0197    0.0000 </r>
       <r>    2.0732    0.0000 </r>
       <r>    2.1049    0.0000 </r>
       <r>    2.2187    0.0000 </r>
       <r>    6.6384    0.0000 </r>
       <r>    7.8508    0.0000 </r>
       <r>    8.2249    0.0000 </r>
       <r>    8.4369    0.0000 </r>
       <r>    8.4550    0.0000 </r>
       <r>    8.9841    0.0000 </r>
       <r>    9.5049    0.0000 </r>
       <r>    9.7804    0.0000 </r>
       <r>    9.9594    0.0000 </r>
       <r>   10.2443    0.0000 </r>
       <r>   10.3221    0.0000 </r>
       <r>   10.5765    0.0000 </r>
       <r>   10.6844    0.0000 </r>
       <r>   10.8281    0.0000 </r>
       <r>   11.1417    0.0000 </r>
       <r>   11.3949    0.0000 </r>
       <r>   11.6386    0.0000 </r>
       <r>   11.8946    0.0000 </r>
       <r>   12.2728    0.0000 </r>
       <r>   12.3584    0.0000 </r>
       <r>   12.4477    0.0000 </r>
       <r>   13.0566    0.0000 </r>
       <r>   13.3759    0.0000 </r>
       <r>   13.6990    0.0000 </r>
      </set>
      <set comment="kpoint 14">
       <r>  -43.7069    1.0000 </r>
       <r>  -43.7015    1.0000 </r>
       <r>  -43.7009    1.0000 </r>
       <r>  -43.6995    1.0000 </r>
       <r>  -43.6964    1.0000 </r>
       <r>  -43.6910    1.0000 </r>
       <r>  -14.7533    1.0000 </r>
       <r>  -14.4283    1.0000 </r>
       <r>  -14.1942    1.0000 </r>
       <r>  -14.1123    1.0000 </r>
       <r>  -14.0449    1.0000 </r>
       <r>  -14.0392    1.0000 </r>
       <r>   -4.6000    1.0000 </r>
       <r>   -4.3486    1.0000 </r>
       <r>   -4.0212    1.0000 </r>
       <r>   -3.9265    1.0000 </r>
       <r>   -3.8090    1.0000 </r>
       <r>   -3.6556    1.0000 </r>
       <r>   -3.5235    1.0000 </r>
       <r>   -3.4434    1.0000 </r>
       <r>   -3.0369    1.0000 </r>
       <r>   -2.6431    1.0000 </r>
       <r>   -2.6291    1.0000 </r>
       <r>   -2.1594    1.0000 </r>
       <r>   -2.0076    1.0000 </r>
       <r>   -1.8251    1.0000 </r>
       <r>   -1.7660    1.0000 </r>
       <r>   -1.6163    1.0000 </r>
       <r>   -1.4529    1.0000 </r>
       <r>   -1.3111    1.0000 </r>
       <r>   -0.4885    1.0000 </r>
       <r>   -0.2668    1.0000 </r>
       <r>   -0.1948    1.0000 </r>
       <r>   -0.0289    1.0000 </r>
       <r>    0.0319    1.0000 </r>
       <r>    0.0928    1.0000 </r>
       <r>    2.0087    0.0000 </r>
       <r>    2.0549    0.0000 </r>
       <r>    2.0833    0.0000 </r>
       <r>    2.2431    0.0000 </r>
       <r>    7.2384    0.0000 </r>
       <r>    7.4641    0.0000 </r>
       <r>    7.9193    0.0000 </r>
       <r>    8.2109    0.0000 </r>
       <r>    8.5773    0.0000 </r>
       <r>    8.6938    0.0000 </r>
       <r>    9.0641    0.0000 </r>
       <r>    9.5110    0.0000 </r>
       <r>    9.8139    0.0000 </r>
       <r>    9.9220    0.0000 </r>
       <r>   10.2463    0.0000 </r>
       <r>   10.7816    0.0000 </r>
       <r>   10.9943    0.0000 </r>
       <r>   11.1217    0.0000 </r>
       <r>   11.6358    0.0000 </r>
       <r>   11.6909    0.0000 </r>
       <r>   11.8522    0.0000 </r>
       <r>   11.9437    0.0000 </r>
       <r>   12.1272    0.0000 </r>
       <r>   12.3158    0.0000 </r>
       <r>   12.5014    0.0000 </r>
       <r>   12.8930    0.0000 </r>
       <r>   13.3693    0.0000 </r>
       <r>   13.8251    0.0000 </r>
      </set>
      <set comment="kpoint 15">
       <r>  -43.7069    1.0000 </r>
       <r>  -43.7015    1.0000 </r>
       <r>  -43.7009    1.0000 </r>
       <r>  -43.6995    1.0000 </r>
       <r>  -43.6964    1.0000 </r>
       <r>  -43.6910    1.0000 </r>
       <r>  -14.7445    1.0000 </r>
       <r>  -14.4321    1.0000 </r>
       <r>  -14.1969    1.0000 </r>
       <r>  -14.1239    1.0000 </r>
       <r>  -14.0423    1.0000 </r>
       <r>  -14.0344    1.0000 </r>
       <r>   -4.5992    1.0000 </r>
       <r>   -4.3195    1.0000 </r>
       <r>   -4.0061    1.0000 </r>
       <r>   -3.9080    1.0000 </r>
       <r>   -3.7966    1.0000 </r>
       <r>   -3.6630    1.0000 </r>
[...]
        <r>  0.0015  0.0226  0.0011  0.0087  0.0000  0.0000  0.0000  0.0000  0.0000 </r>
        <r>  0.0010  0.0066  0.0004  0.0092  0.0000  0.0000  0.0000  0.0000  0.0000 </r>
        <r>  0.0010  0.0066  0.0004  0.0092  0.0000  0.0000  0.0000  0.0000  0.0000 </r>
        <r>  0.0024  0.0206  0.0018  0.0125  0.0000  0.0000  0.0000  0.0000  0.0000 </r>
        <r>  0.0015  0.0226  0.0011  0.0087  0.0000  0.0000  0.0000  0.0000  0.0000 </r>
        <r>  0.0024  0.0206  0.0018  0.0125  0.0000  0.0000  0.0000  0.0000  0.0000 </r>
       </set>
       <set comment="band 41">
        <r>  0.0001  0.0015  0.0003  0.0041  0.0007  0.0092  0.0003  0.0015  0.0002 </r>
        <r>  0.0001  0.0015  0.0003  0.0041  0.0007  0.0092  0.0003  0.0015  0.0002 </r>
        <r>  0.0092  0.0001  0.0045  0.0164  0.0000  0.0000  0.0000  0.0000  0.0000 </r>
        <r>  0.0074  0.0000  0.0049  0.0211  0.0000  0.0000  0.0000  0.0000  0.0000 </r>
        <r>  0.0074  0.0000  0.0049  0.0211  0.0000  0.0000  0.0000  0.0000  0.0000 </r>
        <r>  0.0090  0.0002  0.0036  0.0188  0.0000  0.0000  0.0000  0.0000  0.0000 </r>
        <r>  0.0092  0.0001  0.0045  0.0164  0.0000  0.0000  0.0000  0.0000  0.0000 </r>
        <r>  0.0090  0.0002  0.0036  0.0188  0.0000  0.0000  0.0000  0.0000  0.0000 </r>
       </set>
       <set comment="band 42">
        <r>  0.0708  0.0039  0.0027  0.0002  0.0003  0.0000  0.0013  0.0004  0.0052 </r>
        <r>  0.0708  0.0039  0.0027  0.0002  0.0003  0.0000  0.0013  0.0004  0.0052 </r>
        <r>  0.0020  0.0040  0.0015  0.0021  0.0000  0.0000  0.0000  0.0000  0.0000 </r>
        <r>  0.0003  0.0007  0.0021  0.0041  0.0000  0.0000  0.0000  0.0000  0.0000 </r>
        <r>  0.0003  0.0007  0.0021  0.0041  0.0000  0.0000  0.0000  0.0000  0.0000 </r>
        <r>  0.0035  0.0023  0.0042  0.0008  0.0000  0.0000  0.0000  0.0000  0.0000 </r>
        <r>  0.0020  0.0040  0.0015  0.0021  0.0000  0.0000  0.0000  0.0000  0.0000 </r>
        <r>  0.0035  0.0023  0.0042  0.0008  0.0000  0.0000  0.0000  0.0000  0.0000 </r>
       </set>
       <set comment="band 43">
        <r>  0.0425  0.0001  0.0015  0.0001  0.0012  0.0001  0.0005  0.0006  0.0026 </r>
        <r>  0.0425  0.0001  0.0015  0.0001  0.0012  0.0001  0.0005  0.0006  0.0026 </r>
        <r>  0.0284  0.0002  0.0075  0.0070  0.0000  0.0000  0.0000  0.0000  0.0000 </r>
        <r>  0.0220  0.0002  0.0102  0.0087  0.0000  0.0000  0.0000  0.0000  0.0000 </r>
        <r>  0.0220  0.0002  0.0102  0.0087  0.0000  0.0000  0.0000  0.0000  0.0000 </r>
        <r>  0.0254  0.0002  0.0089  0.0068  0.0000  0.0000  0.0000  0.0000  0.0000 </r>
        <r>  0.0284  0.0002  0.0075  0.0070  0.0000  0.0000  0.0000  0.0000  0.0000 </r>
        <r>  0.0254  0.0002  0.0089  0.0068  0.0000  0.0000  0.0000  0.0000  0.0000 </r>
       </set>
       <set comment="band 44">
        <r>  0.0212  0.0045  0.0046  0.0029  0.0054  0.0022  0.0006  0.0001  0.0004 </r>
        <r>  0.0212  0.0045  0.0046  0.0029  0.0054  0.0022  0.0006  0.0001  0.0004 </r>
        <r>  0.0002  0.0014  0.0038  0.0027  0.0000  0.0000  0.0000  0.0000  0.0000 </r>
        <r>  0.0095  0.0010  0.0006  0.0006  0.0000  0.0000  0.0000  0.0000  0.0000 </r>
        <r>  0.0095  0.0010  0.0006  0.0006  0.0000  0.0000  0.0000  0.0000  0.0000 </r>
        <r>  0.0001  0.0017  0.0058  0.0073  0.0000  0.0000  0.0000  0.0000  0.0000 </r>
        <r>  0.0002  0.0014  0.0038  0.0027  0.0000  0.0000  0.0000  0.0000  0.0000 </r>
        <r>  0.0001  0.0017  0.0058  0.0073  0.0000  0.0000  0.0000  0.0000  0.0000 </r>
       </set>
       <set comment="band 45">
        <r>  0.0008  0.0014  0.0025  0.0354  0.0004  0.0026  0.0009  0.0025  0.0002 </r>
        <r>  0.0008  0.0014  0.0025  0.0354  0.0004  0.0026  0.0009  0.0025  0.0002 </r>
        <r>  0.0050  0.0013  0.0061  0.0016  0.0000  0.0000  0.0000  0.0000  0.0000 </r>
        <r>  0.0036  0.0005  0.0063  0.0009  0.0000  0.0000  0.0000  0.0000  0.0000 </r>
        <r>  0.0036  0.0005  0.0063  0.0009  0.0000  0.0000  0.0000  0.0000  0.0000 </r>
        <r>  0.0069  0.0001  0.0029  0.0003  0.0000  0.0000  0.0000  0.0000  0.0000 </r>
        <r>  0.0050  0.0013  0.0061  0.0016  0.0000  0.0000  0.0000  0.0000  0.0000 </r>
        <r>  0.0069  0.0001  0.0029  0.0003  0.0000  0.0000  0.0000  0.0000  0.0000 </r>
       </set>
       <set comment="band 46">
        <r>  0.0359  0.0201  0.0013  0.0047  0.0007  0.0006  0.0021  0.0004  0.0009 </r>
        <r>  0.0359  0.0201  0.0013  0.0047  0.0007  0.0006  0.0021  0.0004  0.0009 </r>
        <r>  0.0070  0.0022  0.0091  0.0028  0.0000  0.0000  0.0000  0.0000  0.0000 </r>
        <r>  0.0045  0.0018  0.0078  0.0025  0.0000  0.0000  0.0000  0.0000  0.0000 </r>
        <r>  0.0045  0.0018  0.0078  0.0025  0.0000  0.0000  0.0000  0.0000  0.0000 </r>
        <r>  0.0073  0.0063  0.0029  0.0066  0.0000  0.0000  0.0000  0.0000  0.0000 </r>
        <r>  0.0070  0.0022  0.0091  0.0028  0.0000  0.0000  0.0000  0.0000  0.0000 </r>
        <r>  0.0073  0.0063  0.0029  0.0066  0.0000  0.0000  0.0000  0.0000  0.0000 </r>
       </set>
       <set comment="band 47">
        <r>  0.0544  0.0062  0.0059  0.0009  0.0011  0.0004  0.0018  0.0042  0.0025 </r>
        <r>  0.0544  0.0062  0.0059  0.0009  0.0011  0.0004  0.0018  0.0042  0.0025 </r>
        <r>  0.0074  0.0045  0.0081  0.0002  0.0000  0.0000  0.0000  0.0000  0.0000 </r>
        <r>  0.0007  0.0031  0.0065  0.0006  0.0000  0.0000  0.0000  0.0000  0.0000 </r>
        <r>  0.0007  0.0031  0.0065  0.0006  0.0000  0.0000  0.0000  0.0000  0.0000 </r>
        <r>  0.0049  0.0006  0.0099  0.0046  0.0000  0.0000  0.0000  0.0000  0.0000 </r>
        <r>  0.0074  0.0045  0.0081  0.0002  0.0000  0.0000  0.0000  0.0000  0.0000 </r>
        <r>  0.0049  0.0006  0.0099  0.0046  0.0000  0.0000  0.0000  0.0000  0.0000 </r>
       </set>
       <set comment="band 48">
        <r>  0.0116  0.0004  0.0091  0.0047  0.0010  0.0002  0.0003  0.0031  0.0021 </r>
        <r>  0.0116  0.0004  0.0091  0.0047  0.0010  0.0002  0.0003  0.0031  0.0021 </r>
        <r>  0.0007  0.0081  0.0005  0.0079  0.0000  0.0000  0.0000  0.0000  0.0000 </r>
        <r>  0.0091  0.0043  0.0053  0.0020  0.0000  0.0000  0.0000  0.0000  0.0000 </r>
        <r>  0.0091  0.0043  0.0053  0.0020  0.0000  0.0000  0.0000  0.0000  0.0000 </r>
        <r>  0.0046  0.0027  0.0049  0.0009  0.0000  0.0000  0.0000  0.0000  0.0000 </r>
        <r>  0.0007  0.0081  0.0005  0.0079  0.0000  0.0000  0.0000  0.0000  0.0000 </r>
        <r>  0.0046  0.0027  0.0049  0.0009  0.0000  0.0000  0.0000  0.0000  0.0000 </r>
       </set>
       <set comment="band 49">
        <r>  0.0015  0.0165  0.0054  0.0002  0.0068  0.0041  0.0184  0.0013  0.0035 </r>
        <r>  0.0015  0.0165  0.0054  0.0002  0.0068  0.0041  0.0184  0.0013  0.0035 </r>
        <r>  0.0019  0.0029  0.0129  0.0010  0.0000  0.0000  0.0000  0.0000  0.0000 </r>
        <r>  0.0024  0.0021  0.0029  0.0033  0.0000  0.0000  0.0000  0.0000  0.0000 </r>
        <r>  0.0024  0.0021  0.0029  0.0033  0.0000  0.0000  0.0000  0.0000  0.0000 </r>
        <r>  0.0003  0.0036  0.0029  0.0020  0.0000  0.0000  0.0000  0.0000  0.0000 </r>
        <r>  0.0019  0.0029  0.0129  0.0010  0.0000  0.0000  0.0000  0.0000  0.0000 </r>
        <r>  0.0003  0.0036  0.0029  0.0020  0.0000  0.0000  0.0000  0.0000  0.0000 </r>
       </set>
       <set comment="band 50">
        <r>  0.0143  0.0011  0.0038  0.0026  0.0024  0.0013  0.0071  0.0006  0.0144 </r>
        <r>  0.0143  0.0011  0.0038  0.0026  0.0024  0.0013  0.0071  0.0006  0.0144 </r>
        <r>  0.0011  0.0055  0.0006  0.0011  0.0000  0.0000  0.0000  0.0000  0.0000 </r>
        <r>  0.0005  0.0148  0.0024  0.0038  0.0000  0.0000  0.0000  0.0000  0.0000 </r>
        <r>  0.0005  0.0148  0.0024  0.0038  0.0000  0.0000  0.0000  0.0000  0.0000 </r>
        <r>  0.0001  0.0138  0.0011  0.0017  0.0000  0.0000  0.0000  0.0000  0.0000 </r>
        <r>  0.0011  0.0055  0.0006  0.0011  0.0000  0.0000  0.0000  0.0000  0.0000 </r>
        <r>  0.0001  0.0138  0.0011  0.0017  0.0000  0.0000  0.0000  0.0000  0.0000 </r>
       </set>
       <set comment="band 51">
        <r>  0.0033  0.0134  0.0202  0.0045  0.0016  0.0092  0.0010  0.0053  0.0046 </r>
        <r>  0.0033  0.0134  0.0202  0.0045  0.0016  0.0092  0.0010  0.0053  0.0046 </r>
        <r>  0.0018  0.0023  0.0052  0.0031  0.0000  0.0000  0.0000  0.0000  0.0000 </r>
        <r>  0.0024  0.0051  0.0052  0.0010  0.0000  0.0000  0.0000  0.0000  0.0000 </r>
        <r>  0.0024  0.0051  0.0052  0.0010  0.0000  0.0000  0.0000  0.0000  0.0000 </r>
        <r>  0.0004  0.0094  0.0009  0.0006  0.0000  0.0000  0.0000  0.0000  0.0000 </r>
        <r>  0.0018  0.0023  0.0052  0.0031  0.0000  0.0000  0.0000  0.0000  0.0000 </r>
        <r>  0.0004  0.0094  0.0009  0.0006  0.0000  0.0000  0.0000  0.0000  0.0000 </r>
       </set>
       <set comment="band 52">
        <r>  0.0000  0.0002  0.0447  0.0113  0.0004  0.0050  0.0001  0.0003  0.0022 </r>
        <r>  0.0000  0.0002  0.0447  0.0113  0.0004  0.0050  0.0001  0.0003  0.0022 </r>
        <r>  0.0004  0.0061  0.0019  0.0014  0.0000  0.0000  0.0000  0.0000  0.0000 </r>
        <r>  0.0017  0.0143  0.0012  0.0014  0.0000  0.0000  0.0000  0.0000  0.0000 </r>
        <r>  0.0017  0.0143  0.0012  0.0014  0.0000  0.0000  0.0000  0.0000  0.0000 </r>
        <r>  0.0003  0.0025  0.0042  0.0013  0.0000  0.0000  0.0000  0.0000  0.0000 </r>
        <r>  0.0004  0.0061  0.0019  0.0014  0.0000  0.0000  0.0000  0.0000  0.0000 </r>
        <r>  0.0003  0.0025  0.0042  0.0013  0.0000  0.0000  0.0000  0.0000  0.0000 </r>
       </set>
       <set comment="band 53">
        <r>  0.0023  0.0123  0.0176  0.0030  0.0002  0.0018  0.0071  0.0007  0.0005 </r>
        <r>  0.0023  0.0123  0.0176  0.0030  0.0002  0.0018  0.0071  0.0007  0.0005 </r>
        <r>  0.0014  0.0034  0.0076  0.0013  0.0000  0.0000  0.0000  0.0000  0.0000 </r>
        <r>  0.0019  0.0032  0.0059  0.0045  0.0000  0.0000  0.0000  0.0000  0.0000 </r>
        <r>  0.0019  0.0032  0.0059  0.0045  0.0000  0.0000  0.0000  0.0000  0.0000 </r>
        <r>  0.0043  0.0014  0.0045  0.0067  0.0000  0.0000  0.0000  0.0000  0.0000 </r>
        <r>  0.0014  0.0034  0.0076  0.0013  0.0000  0.0000  0.0000  0.0000  0.0000 </r>
        <r>  0.0043  0.0014  0.0045  0.0067  0.0000  0.0000  0.0000  0.0000  0.0000 </r>
       </set>
       <set comment="band 54">
        <r>  0.0139  0.0072  0.0157  0.0029  0.0062  0.0024  0.0040  0.0035  0.0003 </r>
        <r>  0.0139  0.0072  0.0157  0.0029  0.0062  0.0024  0.0040  0.0035  0.0003 </r>
        <r>  0.0004  0.0026  0.0010  0.0064  0.0000  0.0000  0.0000  0.0000  0.0000 </r>
        <r>  0.0000  0.0002  0.0107  0.0055  0.0000  0.0000  0.0000  0.0000  0.0000 </r>
        <r>  0.0000  0.0002  0.0107  0.0055  0.0000  0.0000  0.0000  0.0000  0.0000 </r>
        <r>  0.0003  0.0010  0.0087  0.0033  0.0000  0.0000  0.0000  0.0000  0.0000 </r>
        <r>  0.0004  0.0026  0.0010  0.0064  0.0000  0.0000  0.0000  0.0000  0.0000 </r>
        <r>  0.0003  0.0010  0.0087  0.0033  0.0000  0.0000  0.0000  0.0000  0.0000 </r>
       </set>
       <set comment="band 55">
        <r>  0.0112  0.0013  0.0009  0.0042  0.0065  0.0004  0.0007  0.0019  0.0004 </r>
        <r>  0.0112  0.0013  0.0009  0.0042  0.0065  0.0004  0.0007  0.0019  0.0004 </r>
        <r>  0.0002  0.0001  0.0026  0.0031  0.0000  0.0000  0.0000  0.0000  0.0000 </r>
        <r>  0.0001  0.0006  0.0028  0.0051  0.0000  0.0000  0.0000  0.0000  0.0000 </r>
        <r>  0.0001  0.0006  0.0028  0.0051  0.0000  0.0000  0.0000  0.0000  0.0000 </r>
        <r>  0.0002  0.0026  0.0015  0.0040  0.0000  0.0000  0.0000  0.0000  0.0000 </r>
        <r>  0.0002  0.0001  0.0026  0.0031  0.0000  0.0000  0.0000  0.0000  0.0000 </r>
        <r>  0.0002  0.0026  0.0015  0.0040  0.0000  0.0000  0.0000  0.0000  0.0000 </r>
       </set>
       <set comment="band 56">
        <r>  0.0006  0.0050  0.0101  0.0120  0.0000  0.0146  0.0015  0.0101  0.0061 </r>
        <r>  0.0006  0.0050  0.0101  0.0120  0.0000  0.0146  0.0015  0.0101  0.0061 </r>
        <r>  0.0003  0.0053  0.0132  0.0041  0.0000  0.0000  0.0000  0.0000  0.0000 </r>
        <r>  0.0011  0.0014  0.0062  0.0035  0.0000  0.0000  0.0000  0.0000  0.0000 </r>
        <r>  0.0011  0.0014  0.0062  0.0035  0.0000  0.0000  0.0000  0.0000  0.0000 </r>
        <r>  0.0010  0.0012  0.0066  0.0031  0.0000  0.0000  0.0000  0.0000  0.0000 </r>
        <r>  0.0003  0.0053  0.0132  0.0041  0.0000  0.0000  0.0000  0.0000  0.0000 </r>
        <r>  0.0010  0.0012  0.0066  0.0031  0.0000  0.0000  0.0000  0.0000  0.0000 </r>
       </set>
       <set comment="band 57">
        <r>  0.0200  0.0074  0.0018  0.0048  0.0013  0.0035  0.0066  0.0001  0.0021 </r>
        <r>  0.0200  0.0074  0.0018  0.0048  0.0013  0.0035  0.0066  0.0001  0.0021 </r>
        <r>  0.0003  0.0219  0.0020  0.0021  0.0000  0.0000  0.0000  0.0000  0.0000 </r>
        <r>  0.0021  0.0134  0.0001  0.0030  0.0000  0.0000  0.0000  0.0000  0.0000 </r>
        <r>  0.0021  0.0134  0.0001  0.0030  0.0000  0.0000  0.0000  0.0000  0.0000 </r>
        <r>  0.0004  0.0271  0.0011  0.0089  0.0000  0.0000  0.0000  0.0000  0.0000 </r>
        <r>  0.0003  0.0220  0.0020  0.0021  0.0000  0.0000  0.0000  0.0000  0.0000 </r>
        <r>  0.0004  0.0271  0.0011  0.0089  0.0000  0.0000  0.0000  0.0000  0.0000 </r>
       </set>
       <set comment="band 58">
        <r>  0.0069  0.0138  0.0002  0.0194  0.0002  0.0061  0.0006  0.0072  0.0011 </r>
        <r>  0.0069  0.0138  0.0002  0.0194  0.0002  0.0061  0.0006  0.0072  0.0011 </r>
        <r>  0.0010  0.0156  0.0002  0.0047  0.0000  0.0000  0.0000  0.0000  0.0000 </r>
        <r>  0.0001  0.0073  0.0001  0.0031  0.0000  0.0000  0.0000  0.0000  0.0000 </r>
        <r>  0.0001  0.0073  0.0001  0.0031  0.0000  0.0000  0.0000  0.0000  0.0000 </r>
        <r>  0.0002  0.0123  0.0035  0.0008  0.0000  0.0000  0.0000  0.0000  0.0000 </r>
        <r>  0.0010  0.0156  0.0002  0.0047  0.0000  0.0000  0.0000  0.0000  0.0000 </r>
        <r>  0.0002  0.0123  0.0035  0.0008  0.0000  0.0000  0.0000  0.0000  0.0000 </r>
       </set>
       <set comment="band 59">
        <r>  0.0017  0.0453  0.0014  0.0079  0.0003  0.0001  0.0007  0.0029  0.0048 </r>
        <r>  0.0017  0.0453  0.0014  0.0079  0.0003  0.0001  0.0007  0.0029  0.0048 </r>
        <r>  0.0011  0.0054  0.0017  0.0023  0.0000  0.0000  0.0000  0.0000  0.0000 </r>
        <r>  0.0002  0.0002  0.0198  0.0005  0.0000  0.0000  0.0000  0.0000  0.0000 </r>
        <r>  0.0002  0.0002  0.0198  0.0005  0.0000  0.0000  0.0000  0.0000  0.0000 </r>
        <r>  0.0005  0.0055  0.0058  0.0018  0.0000  0.0000  0.0000  0.0000  0.0000 </r>
        <r>  0.0011  0.0054  0.0017  0.0023  0.0000  0.0000  0.0000  0.0000  0.0000 </r>
        <r>  0.0005  0.0055  0.0058  0.0018  0.0000  0.0000  0.0000  0.0000  0.0000 </r>
       </set>
       <set comment="band 60">
        <r>  0.0016  0.0021  0.0009  0.0010  0.0004  0.0116  0.0113  0.0043  0.0106 </r>
        <r>  0.0016  0.0021  0.0009  0.0010  0.0004  0.0116  0.0113  0.0043  0.0105 </r>
        <r>  0.0004  0.0003  0.0004  0.0056  0.0000  0.0000  0.0000  0.0000  0.0000 </r>
        <r>  0.0001  0.0059  0.0002  0.0028  0.0000  0.0000  0.0000  0.0000  0.0000 </r>
        <r>  0.0001  0.0059  0.0002  0.0028  0.0000  0.0000  0.0000  0.0000  0.0000 </r>
        <r>  0.0002  0.0001  0.0035  0.0034  0.0000  0.0000  0.0000  0.0000  0.0000 </r>
        <r>  0.0004  0.0003  0.0004  0.0056  0.0000  0.0000  0.0000  0.0000  0.0000 </r>
        <r>  0.0002  0.0001  0.0035  0.0034  0.0000  0.0000  0.0000  0.0000  0.0000 </r>
       </set>
       <set comment="band 61">
        <r>  0.0045  0.0033  0.0004  0.0030  0.0014  0.0043  0.0006  0.0182  0.0220 </r>
        <r>  0.0045  0.0033  0.0004  0.0030  0.0014  0.0043  0.0006  0.0182  0.0220 </r>
        <r>  0.0000  0.0007  0.0006  0.0101  0.0000  0.0000  0.0000  0.0000  0.0000 </r>
        <r>  0.0003  0.0033  0.0002  0.0107  0.0000  0.0000  0.0000  0.0000  0.0000 </r>
        <r>  0.0003  0.0033  0.0002  0.0107  0.0000  0.0000  0.0000  0.0000  0.0000 </r>
        <r>  0.0005  0.0003  0.0023  0.0068  0.0000  0.0000  0.0000  0.0000  0.0000 </r>
        <r>  0.0000  0.0007  0.0006  0.0101  0.0000  0.0000  0.0000  0.0000  0.0000 </r>
        <r>  0.0005  0.0003  0.0023  0.0068  0.0000  0.0000  0.0000  0.0000  0.0000 </r>
       </set>
       <set comment="band 62">
        <r>  0.0001  0.0032  0.0015  0.0002  0.0175  0.0005  0.0153  0.0039  0.0166 </r>
        <r>  0.0001  0.0032  0.0015  0.0002  0.0175  0.0005  0.0153  0.0039  0.0166 </r>
        <r>  0.0001  0.0023  0.0032  0.0008  0.0000  0.0000  0.0000  0.0000  0.0000 </r>
        <r>  0.0001  0.0010  0.0000  0.0007  0.0000  0.0000  0.0000  0.0000  0.0000 </r>
        <r>  0.0001  0.0010  0.0000  0.0007  0.0000  0.0000  0.0000  0.0000  0.0000 </r>
        <r>  0.0001  0.0004  0.0024  0.0001  0.0000  0.0000  0.0000  0.0000  0.0000 </r>
        <r>  0.0001  0.0023  0.0032  0.0008  0.0000  0.0000  0.0000  0.0000  0.0000 </r>
        <r>  0.0001  0.0004  0.0024  0.0001  0.0000  0.0000  0.0000  0.0000  0.0000 </r>
       </set>
       <set comment="band 63">
        <r>  0.0001  0.0002  0.0003  0.0309  0.0011  0.0024  0.0024  0.0024  0.0005 </r>
        <r>  0.0001  0.0002  0.0003  0.0308  0.0011  0.0025  0.0024  0.0024  0.0005 </r>
        <r>  0.0001  0.0023  0.0010  0.0021  0.0000  0.0000  0.0000  0.0000  0.0000 </r>
        <r>  0.0002  0.0039  0.0008  0.0052  0.0000  0.0000  0.0000  0.0000  0.0000 </r>
        <r>  0.0002  0.0039  0.0008  0.0052  0.0000  0.0000  0.0000  0.0000  0.0000 </r>
        <r>  0.0011  0.0018  0.0007  0.0029  0.0000  0.0000  0.0000  0.0000  0.0000 </r>
        <r>  0.0001  0.0023  0.0010  0.0021  0.0000  0.0000  0.0000  0.0000  0.0000 </r>
        <r>  0.0011  0.0018  0.0007  0.0029  0.0000  0.0000  0.0000  0.0000  0.0000 </r>
       </set>
       <set comment="band 64">
        <r>  0.0034  0.0040  0.0001  0.0019  0.0089  0.0014  0.0082  0.0012  0.0039 </r>
        <r>  0.0034  0.0040  0.0001  0.0018  0.0091  0.0013  0.0082  0.0013  0.0041 </r>
        <r>  0.0009  0.0006  0.0045  0.0012  0.0000  0.0000  0.0000  0.0000  0.0000 </r>
        <r>  0.0003  0.0026  0.0087  0.0002  0.0000  0.0000  0.0000  0.0000  0.0000 </r>
        <r>  0.0003  0.0027  0.0087  0.0002  0.0000  0.0000  0.0000  0.0000  0.0000 </r>
        <r>  0.0000  0.0009  0.0026  0.0010  0.0000  0.0000  0.0000  0.0000  0.0000 </r>
        <r>  0.0009  0.0006  0.0046  0.0012  0.0000  0.0000  0.0000  0.0000  0.0000 </r>
        <r>  0.0000  0.0010  0.0026  0.0010  0.0000  0.0000  0.0000  0.0000  0.0000 </r>
       </set>
      </set>
     </set>
    </set>
   </array>
  </projected>
 </calculation>
 <structure name="finalpos" >
  <crystal>
   <varray name="basis" >
    <v>       1.30969580       3.02035032      -5.06479103 </v>
    <v>       1.30969746      -3.02033884      -5.06479745 </v>
    <v>      -5.65492171       0.00000383      -5.06460817 </v>
   </varray>
   <i name="volume">    213.07996520 </i>
   <varray name="rec_basis" >
    <v>       0.07178926       0.16554413      -0.08015664 </v>
    <v>       0.07178935      -0.16554392      -0.08015699 </v>
    <v>      -0.14358388       0.00000000      -0.03712911 </v>
   </varray>
  </crystal>
  <varray name="positions" >
   <v>       0.66668096       0.66668096       0.99995713 </v>
   <v>       0.33331904       0.33331904       0.00004287 </v>
   <v>       0.57717691       0.93421299       0.19740762 </v>
   <v>       0.70879752       0.42282309       0.80259238 </v>
   <v>       0.29120248       0.57717691       0.19740762 </v>
   <v>       0.06578701       0.70879752       0.80259238 </v>
   <v>       0.42282309       0.06578701       0.80259238 </v>
   <v>       0.93421299       0.29120248       0.19740762 </v>
  </varray>
 </structure>
</modeling>
