<?xml version="1.0" encoding="ISO-8859-1"?>
<modeling>
 <generator>
  <i name="program" type="string">vasp </i>
  <i name="version" type="string">6.4.3  </i>
  <i name="subversion" type="string">19Mar24 (build Oct 16 2024 18:29:25) complex                          parallel </i>
  <i name="platform" type="string">LinuxIFC </i>
  <i name="date" type="string">2025 08 12 </i>
  <i name="time" type="string">17:50:42 </i>
 </generator>
 <incar>
  <i type="string" name="PREC">Accurate</i>
  <i type="string" name="ALGO">Fast</i>
  <i type="int" name="ISPIN">     2</i>
  <i type="int" name="NELM">   100</i>
  <i type="int" name="IBRION">     2</i>
  <i name="EDIFF">      0.00010000</i>
  <i type="int" name="NSW">    99</i>
  <i type="int" name="ISIF">     3</i>
  <i name="ENCUT">    520.00000000</i>
  <v name="MAGMOM">      0.60000000      0.60000000</v>
  <i type="string" name="LREAL">Auto</i>
  <i type="int" name="ISMEAR">     1</i>
  <i name="SIGMA">      0.20000000</i>
  <i type="logical" name="LWAVE"> F  </i>
  <i type="int" name="LORBIT">    11</i>
  <i type="logical" name="LASPH"> T  </i>
 </incar>
 <primitive_cell>
  <structure name="primitive_cell" >
   <crystal>
    <varray name="basis" >
     <v>       2.81245500       0.00000000       0.00000000 </v>
     <v>      -1.40622800       2.43565800       0.00000000 </v>
     <v>       0.00000000       0.00000000       4.86685000 </v>
    </varray>
    <i name="volume">     33.33879133 </i>
    <varray name="rec_basis" >
     <v>       0.35556124       0.20528341       0.00000000 </v>
     <v>       0.00000000       0.41056667       0.00000000 </v>
     <v>       0.00000000       0.00000000       0.20547171 </v>
    </varray>
   </crystal>
   <varray name="positions" >
    <v>       0.00000000       0.00000000       0.00000000 </v>
    <v>       0.66666700       0.33333300       0.50000000 </v>
   </varray>
  </structure>
  <varray name="primitive_index" >
   <v type="int" >        1 </v>
   <v type="int" >        2 </v>
  </varray>
 </primitive_cell>
 <kpoints>
  <generation param="Gamma">
   <v type="int" name="divisions">      13       13        7 </v>
   <v name="usershift">      0.00000000       0.00000000       0.00000000 </v>
   <v name="genvec1">      0.07692308       0.00000000       0.00000000 </v>
   <v name="genvec2">      0.00000000       0.07692308       0.00000000 </v>
   <v name="genvec3">      0.00000000       0.00000000       0.14285714 </v>
   <v name="shift">      0.00000000       0.00000000       0.00000000 </v>
  </generation>
  <varray name="kpointlist" >
   <v>       0.00000000       0.00000000       0.00000000 </v>
   <v>       0.07692308       0.00000000       0.00000000 </v>
   <v>       0.15384615       0.00000000       0.00000000 </v>
   <v>       0.23076923       0.00000000       0.00000000 </v>
   <v>       0.30769231       0.00000000       0.00000000 </v>
   <v>       0.38461538       0.00000000       0.00000000 </v>
   <v>       0.46153846       0.00000000       0.00000000 </v>
   <v>       0.07692308       0.07692308       0.00000000 </v>
   <v>       0.15384615       0.07692308       0.00000000 </v>
   <v>       0.23076923       0.07692308       0.00000000 </v>
   <v>       0.30769231       0.07692308       0.00000000 </v>
   <v>       0.38461538       0.07692308       0.00000000 </v>
   <v>       0.46153846       0.07692308       0.00000000 </v>
   <v>       0.15384615       0.15384615       0.00000000 </v>
   <v>       0.23076923       0.15384615       0.00000000 </v>
   <v>       0.30769231       0.15384615       0.00000000 </v>
   <v>       0.38461538       0.15384615       0.00000000 </v>
   <v>       0.23076923       0.23076923       0.00000000 </v>
   <v>       0.30769231       0.23076923       0.00000000 </v>
   <v>       0.38461538       0.23076923       0.00000000 </v>
   <v>       0.30769231       0.30769231       0.00000000 </v>
   <v>       0.00000000       0.00000000       0.14285714 </v>
   <v>       0.07692308       0.00000000       0.14285714 </v>
   <v>       0.15384615       0.00000000       0.14285714 </v>
   <v>       0.23076923       0.00000000       0.14285714 </v>
   <v>       0.30769231       0.00000000       0.14285714 </v>
   <v>       0.38461538       0.00000000       0.14285714 </v>
   <v>       0.46153846       0.00000000       0.14285714 </v>
   <v>       0.07692308       0.07692308       0.14285714 </v>
   <v>       0.15384615       0.07692308       0.14285714 </v>
   <v>       0.23076923       0.07692308       0.14285714 </v>
   <v>       0.30769231       0.07692308       0.14285714 </v>
   <v>       0.38461538       0.07692308       0.14285714 </v>
   <v>       0.46153846       0.07692308       0.14285714 </v>
   <v>       0.15384615       0.15384615       0.14285714 </v>
   <v>       0.23076923       0.15384615       0.14285714 </v>
   <v>       0.30769231       0.15384615       0.14285714 </v>
   <v>       0.38461538       0.15384615       0.14285714 </v>
   <v>       0.23076923       0.23076923       0.14285714 </v>
   <v>       0.30769231       0.23076923       0.14285714 </v>
   <v>       0.38461538       0.23076923       0.14285714 </v>
   <v>       0.30769231       0.30769231       0.14285714 </v>
   <v>       0.00000000       0.00000000       0.28571429 </v>
   <v>       0.07692308       0.00000000       0.28571429 </v>
   <v>       0.15384615       0.00000000       0.28571429 </v>
   <v>       0.23076923       0.00000000       0.28571429 </v>
   <v>       0.30769231       0.00000000       0.28571429 </v>
   <v>       0.38461538       0.00000000       0.28571429 </v>
   <v>       0.46153846       0.00000000       0.28571429 </v>
   <v>       0.07692308       0.07692308       0.28571429 </v>
   <v>       0.15384615       0.07692308       0.28571429 </v>
   <v>       0.23076923       0.07692308       0.28571429 </v>
   <v>       0.30769231       0.07692308       0.28571429 </v>
   <v>       0.38461538       0.07692308       0.28571429 </v>
   <v>       0.46153846       0.07692308       0.28571429 </v>
   <v>       0.15384615       0.15384615       0.28571429 </v>
   <v>       0.23076923       0.15384615       0.28571429 </v>
   <v>       0.30769231       0.15384615       0.28571429 </v>
   <v>       0.38461538       0.15384615       0.28571429 </v>
   <v>       0.23076923       0.23076923       0.28571429 </v>
   <v>       0.30769231       0.23076923       0.28571429 </v>
   <v>       0.38461538       0.23076923       0.28571429 </v>
   <v>       0.30769231       0.30769231       0.28571429 </v>
   <v>       0.00000000       0.00000000       0.42857143 </v>
   <v>       0.07692308       0.00000000       0.42857143 </v>
   <v>       0.15384615       0.00000000       0.42857143 </v>
   <v>       0.23076923       0.00000000       0.42857143 </v>
   <v>       0.30769231       0.00000000       0.42857143 </v>
   <v>       0.38461538       0.00000000       0.42857143 </v>
   <v>       0.46153846       0.00000000       0.42857143 </v>
   <v>       0.07692308       0.07692308       0.42857143 </v>
   <v>       0.15384615       0.07692308       0.42857143 </v>
   <v>       0.23076923       0.07692308       0.42857143 </v>
   <v>       0.30769231       0.07692308       0.42857143 </v>
   <v>       0.38461538       0.07692308       0.42857143 </v>
   <v>       0.46153846       0.07692308       0.42857143 </v>
   <v>       0.15384615       0.15384615       0.42857143 </v>
   <v>       0.23076923       0.15384615       0.42857143 </v>
   <v>       0.30769231       0.15384615       0.42857143 </v>
   <v>       0.38461538       0.15384615       0.42857143 </v>
   <v>       0.23076923       0.23076923       0.42857143 </v>
   <v>       0.30769231       0.23076923       0.42857143 </v>
   <v>       0.38461538       0.23076923       0.42857143 </v>
   <v>       0.30769231       0.30769231       0.42857143 </v>
  </varray>
  <varray name="weights" >
   <v>       0.00084531 </v>
   <v>       0.00507185 </v>
   <v>       0.00507185 </v>
   <v>       0.00507185 </v>
   <v>       0.00507185 </v>
   <v>       0.00507185 </v>
   <v>       0.00507185 </v>
   <v>       0.00507185 </v>
   <v>       0.01014370 </v>
   <v>       0.01014370 </v>
   <v>       0.01014370 </v>
   <v>       0.01014370 </v>
   <v>       0.00507185 </v>
   <v>       0.00507185 </v>
   <v>       0.01014370 </v>
   <v>       0.01014370 </v>
   <v>       0.01014370 </v>
   <v>       0.00507185 </v>
   <v>       0.01014370 </v>
   <v>       0.00507185 </v>
   <v>       0.00507185 </v>
   <v>       0.00169062 </v>
   <v>       0.01014370 </v>
   <v>       0.01014370 </v>
   <v>       0.01014370 </v>
   <v>       0.01014370 </v>
   <v>       0.01014370 </v>
   <v>       0.01014370 </v>
   <v>       0.01014370 </v>
   <v>       0.02028740 </v>
   <v>       0.02028740 </v>
   <v>       0.02028740 </v>
   <v>       0.02028740 </v>
   <v>       0.01014370 </v>
   <v>       0.01014370 </v>
   <v>       0.02028740 </v>
   <v>       0.02028740 </v>
   <v>       0.02028740 </v>
   <v>       0.01014370 </v>
   <v>       0.02028740 </v>
   <v>       0.01014370 </v>
   <v>       0.01014370 </v>
   <v>       0.00169062 </v>
   <v>       0.01014370 </v>
   <v>       0.01014370 </v>
   <v>       0.01014370 </v>
   <v>       0.01014370 </v>
   <v>       0.01014370 </v>
   <v>       0.01014370 </v>
   <v>       0.01014370 </v>
   <v>       0.02028740 </v>
   <v>       0.02028740 </v>
   <v>       0.02028740 </v>
   <v>       0.02028740 </v>
   <v>       0.01014370 </v>
   <v>       0.01014370 </v>
   <v>       0.02028740 </v>
   <v>       0.02028740 </v>
   <v>       0.02028740 </v>
   <v>       0.01014370 </v>
   <v>       0.02028740 </v>
   <v>       0.01014370 </v>
   <v>       0.01014370 </v>
   <v>       0.00169062 </v>
   <v>       0.01014370 </v>
   <v>       0.01014370 </v>
   <v>       0.01014370 </v>
   <v>       0.01014370 </v>
   <v>       0.01014370 </v>
   <v>       0.01014370 </v>
   <v>       0.01014370 </v>
   <v>       0.02028740 </v>
   <v>       0.02028740 </v>
   <v>       0.02028740 </v>
   <v>       0.02028740 </v>
   <v>       0.01014370 </v>
   <v>       0.01014370 </v>
   <v>       0.02028740 </v>
   <v>       0.02028740 </v>
   <v>       0.02028740 </v>
   <v>       0.01014370 </v>
   <v>       0.02028740 </v>
   <v>       0.01014370 </v>
   <v>       0.01014370 </v>
  </varray>
 </kpoints>
 <parameters>
  <separator name="general" >
   <i type="string" name="SYSTEM">unknown system</i>
   <i type="logical" name="LCOMPAT"> F  </i>
  </separator>
  <separator name="electronic" >
   <i type="string" name="PREC">accura</i>
   <i name="ENMAX">    520.00000000</i>
   <i name="ENAUG">    291.05200000</i>
   <i name="EDIFF">      0.00010000</i>
   <i type="int" name="IALGO">    68</i>
   <i type="int" name="IWAVPR">    11</i>
   <i type="int" name="NBANDS">    32</i>
   <i type="int" name="NBANDSLOW">    -1</i>
   <i type="int" name="NBANDSHIGH">    -1</i>
   <i name="NELECT">      6.00000000</i>
   <i type="int" name="TURBO">     0</i>
   <i type="int" name="IRESTART">     0</i>
   <i type="int" name="NREBOOT">     0</i>
   <i type="int" name="NMIN">     0</i>
   <i name="EREF">      0.00000000</i>
   <separator name="electronic smearing" >
    <i type="int" name="ISMEAR">     1</i>
    <i name="SIGMA">      0.20000000</i>
    <i name="KSPACING">      0.50000000</i>
    <i type="logical" name="KGAMMA"> T  </i>
    <i type="logical" name="KBLOWUP"> T  </i>
   </separator>
   <separator name="electronic projectors" >
    <i type="logical" name="LREAL"> T  </i>
    <v name="ROPT">     -0.00025000</v>
    <i type="int" name="LMAXPAW">  -100</i>
    <i type="int" name="LMAXMIX">     2</i>
    <i type="logical" name="NLSPLINE"> F  </i>
   </separator>
   <separator name="electronic startup" >
    <i type="int" name="ISTART">     0</i>
    <i type="int" name="ICHARG">     2</i>
    <i type="int" name="INIWAV">     1</i>
   </separator>
   <separator name="electronic spin" >
    <i type="int" name="ISPIN">     2</i>
    <i type="logical" name="LNONCOLLINEAR"> F  </i>
    <v name="MAGMOM">      0.60000000      0.60000000</v>
    <i name="NUPDOWN">     -1.00000000</i>
    <i type="logical" name="LSORBIT"> F  </i>
    <v name="SAXIS">      0.00000000      0.00000000      1.00000000</v>
    <i type="logical" name="LSPIRAL"> F  </i>
    <v name="QSPIRAL">      0.00000000      0.00000000      0.00000000</v>
    <i type="logical" name="LZEROZ"> F  </i>
   </separator>
   <separator name="electronic exchange-correlation" >
    <i type="logical" name="LASPH"> T  </i>
   </separator>
   <separator name="electronic convergence" >
    <i type="int" name="NELM">   100</i>
    <i type="int" name="NELMDL">    -5</i>
    <i type="int" name="NELMIN">     2</i>
    <i name="ENINI">    520.00000000</i>
    <separator name="electronic convergence detail" >
     <i type="logical" name="LDIAG"> T  </i>
     <i type="logical" name="LSUBROT"> F  </i>
     <i name="WEIMIN">      0.00100000</i>
     <i name="EBREAK">      0.00000078</i>
     <i name="DEPER">      0.30000000</i>
     <i type="int" name="NRMM">     4</i>
     <i name="TIME">      0.40000000</i>
    </separator>
   </separator>
   <separator name="electronic mixer" >
    <i name="AMIX">      0.40000000</i>
    <i name="BMIX">      1.00000000</i>
    <i name="AMIN">      0.10000000</i>
    <i name="AMIX_MAG">      1.60000000</i>
    <i name="BMIX_MAG">      1.00000000</i>
    <separator name="electronic mixer details" >
     <i type="int" name="IMIX">     4</i>
     <i type="logical" name="MIXFIRST"> F  </i>
     <i type="int" name="MAXMIX">   -45</i>
     <i name="WC">    100.00000000</i>
     <i type="int" name="INIMIX">     1</i>
     <i type="int" name="MIXPRE">     1</i>
     <i type="int" name="MREMOVE">     5</i>
    </separator>
   </separator>
   <separator name="electronic dipolcorrection" >
    <i type="logical" name="LDIPOL"> F  </i>
    <i type="logical" name="LMONO"> F  </i>
    <i type="int" name="IDIPOL">     0</i>
    <i name="EPSILON">      1.00000000</i>
    <v name="DIPOL">   -100.00000000   -100.00000000   -100.00000000</v>
    <i name="EFIELD">      0.00000000</i>
    <i type="logical" name="LVACPOTAV"> F  </i>
   </separator>
  </separator>
  <separator name="grids" >
   <i type="int" name="NGX">    24</i>
   <i type="int" name="NGY">    24</i>
   <i type="int" name="NGZ">    36</i>
   <i type="int" name="NGXF">    48</i>
   <i type="int" name="NGYF">    48</i>
   <i type="int" name="NGZF">    72</i>
   <i type="logical" name="ADDGRID"> F  </i>
  </separator>
  <separator name="ionic" >
   <i type="int" name="NSW">    99</i>
   <i type="int" name="IBRION">     2</i>
   <i type="int" name="MDALGO">     0</i>
   <i type="int" name="ISIF">     3</i>
   <i name="PSTRESS">      0.00000000</i>
   <i name="EDIFFG">      0.00100000</i>
   <i type="int" name="NFREE">     1</i>
   <i name="POTIM">      0.50000000</i>
   <i name="SMASS">     -3.00000000</i>
   <i name="SCALEE">      1.00000000</i>
  </separator>
  <separator name="ionic md" >
   <i name="TEBEG">      0.00010000</i>
   <i name="TEEND">      0.00010000</i>
   <i type="int" name="NBLOCK">     1</i>
   <i type="int" name="KBLOCK">    99</i>
   <i type="int" name="NPACO">   256</i>
   <i name="APACO">     10.00000000</i>
  </separator>
  <separator name="symmetry" >
   <i type="int" name="ISYM">     2</i>
   <i name="SYMPREC">      0.00001000</i>
  </separator>
  <separator name="dos" >
   <i type="int" name="LORBIT">    11</i>
   <v name="RWIGS">     -1.00000000</v>
   <i type="int" name="NEDOS">   301</i>
   <i name="EMIN">     10.00000000</i>
   <i name="EMAX">    -10.00000000</i>
   <i name="EFERMI">      0.00000000</i>
  </separator>
  <separator name="writing" >
   <i type="int" name="NWRITE">     2</i>
   <i type="logical" name="LWAVE"> F  </i>
   <i type="logical" name="LDOWNSAMPLE"> F  </i>
   <i type="logical" name="LCHARG"> T  </i>
   <i type="logical" name="LPARD"> F  </i>
   <i type="logical" name="LVTOT"> F  </i>
   <i type="logical" name="LVHAR"> F  </i>
   <i type="logical" name="LELF"> F  </i>
   <i type="logical" name="LOPTICS"> F  </i>
   <v name="STM">      0.00000000      0.00000000      0.00000000      0.00000000      0.00000000      0.00000000      0.00000000</v>
  </separator>
  <separator name="performance" >
   <i type="int" name="NPAR">    32</i>
   <i type="int" name="NSIM">     4</i>
   <i type="int" name="NBLK">    -1</i>
   <i type="logical" name="LPLANE"> T  </i>
   <i type="logical" name="LSCALAPACK"> T  </i>
   <i type="logical" name="LSCAAWARE"> F  </i>
   <i type="logical" name="LSCALU"> F  </i>
   <i type="logical" name="LASYNC"> F  </i>
   <i type="logical" name="LORBITALREAL"> F  </i>
  </separator>
  <separator name="miscellaneous" >
   <i type="int" name="IDIOT">     3</i>
   <i type="int" name="PHON_NSTRUCT">    -1</i>
   <i type="logical" name="LMUSIC"> F  </i>
   <v name="POMASS">     26.98200000</v>
   <v name="DARWINR">      0.00000000</v>
   <v name="DARWINV">      1.00000000</v>
   <i type="logical" name="LCORR"> T  </i>
  </separator>
  <i type="logical" name="GGA_COMPAT"> T  </i>
  <i type="logical" name="LBERRY"> F  </i>
  <i type="int" name="ICORELEVEL">     0</i>
  <i type="logical" name="LDAU"> F  </i>
  <i type="int" name="I_CONSTRAINED_M">     0</i>
  <separator name="electronic exchange-correlation" >
   <i type="string" name="GGA    ">PE</i>
   <i type="string" name="XC_C">1</i>
   <i type="int" name="VOSKOWN">     0</i>
   <i type="logical" name="LHFCALC"> F  </i>
   <i type="string" name="PRECFOCK"></i>
   <i type="logical" name="LSYMGRAD"> F  </i>
   <i type="logical" name="LHFONE"> F  </i>
   <i type="logical" name="LRHFCALC"> F  </i>
   <i type="logical" name="LTHOMAS"> F  </i>
   <i type="logical" name="LMODELHF"> F  </i>
   <i type="logical" name="LFOCKACE"> F  </i>
   <i name="ENCUT4O">     -1.00000000</i>
   <i type="int" name="EXXOEP">     0</i>
   <i type="int" name="FOURORBIT">     0</i>
   <i name="AEXX">      0.00000000</i>
   <i name="HFALPHA">      0.00000000</i>
   <i name="MCALPHA">      0.00000000</i>
   <i name="ALDAX">      1.00000000</i>
   <i name="AGGAX">      1.00000000</i>
   <i name="AMGGAX">      1.00000000</i>
   <i name="ALDAC">      1.00000000</i>
   <i name="AGGAC">      1.00000000</i>
   <i name="AMGGAC">      1.00000000</i>
   <i type="int" name="NKREDX">     1</i>
   <i type="int" name="NKREDY">     1</i>
   <i type="int" name="NKREDZ">     1</i>
   <i type="logical" name="SHIFTRED"> F  </i>
   <i type="logical" name="ODDONLY"> F  </i>
   <i type="logical" name="EVENONLY"> F  </i>
   <i type="int" name="LMAXFOCK">     0</i>
   <i type="int" name="NMAXFOCKAE">     0</i>
   <i type="logical" name="LFOCKAEDFT"> F  </i>
   <i name="HFSCREEN">      0.00000000</i>
   <i name="HFSCREENC">      0.00000000</i>
   <i type="int" name="NBANDSGWLOW">     0</i>
  </separator>
  <separator name="vdW DFT" >
   <i type="logical" name="LUSE_VDW"> F  </i>
   <i type="int" name="IVDW_NL">    -1</i>
   <i type="logical" name="LSPIN_VDW"> F  </i>
   <i name="ZAB_VDW">     -0.84910000</i>
   <i name="GAMMA_VDW">      1.39626340</i>
   <i name="ALPHA_VDW">      0.00000000</i>
   <i name="PARAM1">      0.12340000</i>
   <i name="PARAM2">      1.00000000</i>
   <i name="BPARAM">      6.30000000</i>
   <i name="CPARAM">      0.00930000</i>
  </separator>
  <separator name="model GW" >
   <i type="int" name="MODEL_GW">     0</i>
   <i name="MODEL_EPS0">     10.00163740</i>
   <i name="MODEL_ALPHA">      1.00000000</i>
  </separator>
  <separator name="linear response parameters" >
   <i type="logical" name="LEPSILON"> F  </i>
   <i type="logical" name="LRPA"> F  </i>
   <i type="logical" name="LNABLA"> F  </i>
   <i type="logical" name="LVEL"> F  </i>
   <i name="CSHIFT">      0.10000000</i>
   <i name="OMEGAMAX">     -1.00000000</i>
   <i name="DEG_THRESHOLD">      0.00200000</i>
   <i name="RTIME">     -0.10000000</i>
   <i name="WPLASMAI">      0.00000000</i>
   <v name="DFIELD">      0.00000000      0.00000000      0.00000000</v>
   <v name="WPLASMA">      0.00000000      0.00000000      0.00000000      0.00000000      0.00000000      0.00000000      0.00000000      0.00000000      0.00000000</v>
  </separator>
  <separator name="orbital magnetization" >
   <i type="logical" name="NUCIND"> F  </i>
   <v name="MAGPOS">      0.00000000      0.00000000      0.00000000</v>
   <i type="logical" name="LNICSALL"> T  </i>
   <i type="logical" name="ORBITALMAG"> F  </i>
   <i type="logical" name="LMAGBLOCH"> F  </i>
   <i type="logical" name="LCHIMAG"> F  </i>
   <i type="logical" name="LGAUGE"> T  </i>
   <i type="int" name="MAGATOM">     0</i>
   <v name="MAGDIPOL">      0.00000000      0.00000000      0.00000000</v>
   <v name="AVECCONST">      0.00000000      0.00000000      0.00000000</v>
  </separator>
  <separator name="response functions" >
   <i type="logical" name="LALL_IN_ONE"> F  </i>
   <i type="int" name="IALL_IN_ONE">    -1</i>
   <i type="int" name="NBANDS_WAVE">    -1</i>
   <i type="logical" name="LFINITE_TEMPERATURE"> F  </i>
   <i type="logical" name="LADDER"> F  </i>
   <i type="logical" name="LRPAFORCE"> F  </i>
   <i type="logical" name="LFXC"> F  </i>
   <i type="logical" name="LHARTREE"> T  </i>
   <i type="int" name="IBSE">     0</i>
   <v type="int" name="KPOINT">    -1     0     0     0</v>
   <i type="logical" name="LTCTC"> F  </i>
   <i type="logical" name="LTCTE"> F  </i>
   <i type="logical" name="LTETE"> F  </i>
   <i type="logical" name="LTRIPLET"> F  </i>
   <i type="logical" name="LFXCEPS"> F  </i>
   <i type="logical" name="LFXHEG"> F  </i>
   <i type="int" name="NATURALO">     2</i>
   <i type="logical" name="LHOLEGF"> F  </i>
   <i type="logical" name="L2ORDER"> F  </i>
   <i type="logical" name="LDMP1"> F  </i>
   <i type="logical" name="LMP2LT"> F  </i>
   <i type="logical" name="LSMP2LT"> F  </i>
   <i type="logical" name="LGWLF"> F  </i>
   <i name="ENCUTGW">     -1.60000002</i>
   <i name="ENCUTGWSOFT">     -1.60000002</i>
   <i name="ENCUTLF">     -1.00000000</i>
   <i type="logical" name="ESF_SPLINES"> F  </i>
   <i name="ESF_CONV">      0.01000000</i>
   <i type="int" name="ESF_NINTER">    15</i>
   <i type="int" name="LMAXMP2">    -1</i>
   <i name="SCISSOR">      0.00000000</i>
   <i type="int" name="NOMEGA">     0</i>
   <i type="int" name="NOMEGAR">     0</i>
   <i type="int" name="NBANDSGW">    -1</i>
   <i type="int" name="NBANDSO">    -1</i>
   <i type="int" name="NBANDSV">    -1</i>
   <i type="int" name="NELMGW">     1</i>
   <i type="int" name="NELMHF">     1</i>
   <i type="int" name="DIM">     3</i>
   <i type="int" name="IESPILON">     4</i>
   <i type="int" name="ANTIRES">     0</i>
   <i name="OMEGAMAX">    -30.00000000</i>
   <i name="OMEGAMIN">    -30.00000000</i>
   <i name="OMEGATL">   -200.00000000</i>
   <i type="int" name="OMEGAGRID">     0</i>
   <i name="CSHIFT">     -0.10000000</i>
   <i type="logical" name="LSELFENERGY"> F  </i>
   <i type="logical" name="LSPECTRAL"> F  </i>
   <i type="logical" name="LSPECTRALGW"> F  </i>
   <i type="logical" name="LSINGLES"> F  </i>
   <i type="logical" name="LFERMIGW"> F  </i>
   <i type="logical" name="ODDONLYGW"> F  </i>
   <i type="logical" name="EVENONLYGW"> F  </i>
   <i type="int" name="NKREDLFX">     1</i>
   <i type="int" name="NKREDLFY">     1</i>
   <i type="int" name="NKREDLFZ">     1</i>
   <i type="int" name="MAXMEM">  2800</i>
   <i type="int" name="TELESCOPE">     0</i>
   <i type="int" name="NTAUPAR">    -1</i>
   <i type="int" name="NOMEGAPAR">    -1</i>
   <i name="DAMP_NEWTON">      0.80000001</i>
   <i name="LAMBDA">      1.00000000</i>
  </separator>
  <separator name="External order field" >
   <i name="OFIELD_KAPPA">      0.00000000</i>
   <v name="OFIELD_K">      0.00000000      0.00000000      0.00000000</v>
   <i name="OFIELD_Q6_NEAR">      0.00000000</i>
   <i name="OFIELD_Q6_FAR">      0.00000000</i>
   <i name="OFIELD_A">      0.00000000</i>
  </separator>
  <separator name="optional k-points parameters" >
   <i type="int" name="KPOINTS_OPT_MODE">     1</i>
   <i type="logical" name="LKPOINTS_OPT"> F  </i>
  </separator>
 </parameters>
 <atominfo>
  <atoms>       2 </atoms>
  <types>       1 </types>
  <array name="atoms" >
   <dimension dim="1">ion</dimension>
   <field type="string">element</field>
   <field type="int">atomtype</field>
   <set>
    <rc><c>Al</c><c>   1</c></rc>
    <rc><c>Al</c><c>   1</c></rc>
   </set>
  </array>
  <array name="atomtypes" >
   <dimension dim="1">type</dimension>
   <field type="int">atomspertype</field>
   <field type="string">element</field>
   <field>mass</field>
   <field>valence</field>
   <field type="string">pseudopotential</field>
   <set>
    <rc><c>   2</c><c>Al</c><c>     26.98200000</c><c>      3.00000000</c><c> PAW_PBE Al 04Jan2001                   </c></rc>
   </set>
  </array>
 </atominfo>
 <structure name="initialpos" >
  <crystal>
   <varray name="basis" >
    <v>       2.81245500       0.00000000       0.00000000 </v>
    <v>      -1.40622800       2.43565800       0.00000000 </v>
    <v>       0.00000000       0.00000000       4.86685000 </v>
   </varray>
   <i name="volume">     33.33879133 </i>
   <varray name="rec_basis" >
    <v>       0.35556124       0.20528341       0.00000000 </v>
    <v>       0.00000000       0.41056667       0.00000000 </v>
    <v>       0.00000000       0.00000000       0.20547171 </v>
   </varray>
  </crystal>
  <varray name="positions" >
   <v>       0.00000000       0.00000000       0.00000000 </v>
   <v>       0.66666700       0.33333300       0.50000000 </v>
  </varray>
 </structure>
 <calculation>
  <scstep>
   <time name="dav">    1.05    1.05</time>
   <time name="total">    1.18    1.19</time>
   <energy>
    <i name="alphaZ">     -0.40299145 </i>
    <i name="ewald">   -146.45584482 </i>
    <i name="hartreedc">     -0.22575689 </i>
    <i name="XCdc">    -52.40843716 </i>
    <i name="pawpsdc">     71.07029210 </i>
    <i name="pawaedc">     -7.16138199 </i>
    <i name="eentropy">     -0.00284436 </i>
    <i name="bandstr">     22.99064865 </i>
    <i name="atom">    107.07691413 </i>
    <i name="e_fr_energy">     -5.51940180 </i>
    <i name="e_wo_entrp">     -5.51655744 </i>
    <i name="e_0_energy">     -5.51845368 </i>
   </energy>
  </scstep>
  <scstep>
   <time name="dav">    1.86    1.87</time>
   <time name="total">    1.86    1.87</time>
   <energy>
    <i name="e_fr_energy">     -7.29447961 </i>
    <i name="e_wo_entrp">     -7.29564947 </i>
    <i name="e_0_energy">     -7.29486956 </i>
   </energy>
  </scstep>
  <scstep>
   <time name="dav">    1.30    1.31</time>
   <time name="total">    1.30    1.31</time>
   <energy>
    <i name="e_fr_energy">     -7.29528136 </i>
    <i name="e_wo_entrp">     -7.29645256 </i>
    <i name="e_0_energy">     -7.29567176 </i>
   </energy>
  </scstep>
  <scstep>
   <time name="dav">    3.22    3.25</time>
   <time name="total">    3.22    3.25</time>
   <energy>
    <i name="e_fr_energy">     -7.29528175 </i>
    <i name="e_wo_entrp">     -7.29645296 </i>
    <i name="e_0_energy">     -7.29567215 </i>
   </energy>
  </scstep>
  <scstep>
   <time name="dav">    1.06    1.06</time>
   <time name="total">    1.11    1.11</time>
   <energy>
    <i name="e_fr_energy">     -7.29528175 </i>
    <i name="e_wo_entrp">     -7.29645296 </i>
    <i name="e_0_energy">     -7.29567215 </i>
   </energy>
  </scstep>
  <scstep>
   <time name="diag">    0.26    0.26</time>
   <time name="diis">    0.41    0.41</time>
   <time name="orth">    0.02    0.02</time>
   <time name="total">    0.86    0.87</time>
   <energy>
    <i name="e_fr_energy">     -7.42590636 </i>
    <i name="e_wo_entrp">     -7.42508841 </i>
    <i name="e_0_energy">     -7.42563371 </i>
   </energy>
  </scstep>
  <scstep>
   <time name="diag">    0.25    0.25</time>
   <time name="diis">    0.41    0.41</time>
   <time name="orth">    0.02    0.02</time>
   <time name="total">    0.85    0.85</time>
   <energy>
    <i name="e_fr_energy">     -7.42084507 </i>
    <i name="e_wo_entrp">     -7.42011321 </i>
    <i name="e_0_energy">     -7.42060111 </i>
   </energy>
  </scstep>
  <scstep>
   <time name="diag">    0.25    0.26</time>
   <time name="diis">    0.41    0.41</time>
   <time name="orth">    0.02    0.02</time>
   <time name="total">    0.85    0.86</time>
   <energy>
    <i name="e_fr_energy">     -7.41906284 </i>
    <i name="e_wo_entrp">     -7.41836879 </i>
    <i name="e_0_energy">     -7.41883149 </i>
   </energy>
  </scstep>
  <scstep>
   <time name="diag">    0.25    0.25</time>
   <time name="diis">    0.41    0.41</time>
   <time name="orth">    0.02    0.02</time>
   <time name="total">    0.85    0.85</time>
   <energy>
    <i name="e_fr_energy">     -7.41814849 </i>
    <i name="e_wo_entrp">     -7.41746154 </i>
    <i name="e_0_energy">     -7.41791951 </i>
   </energy>
  </scstep>
  <scstep>
   <time name="diag">    0.25    0.25</time>
   <time name="diis">    0.40    0.41</time>
   <time name="orth">    0.02    0.02</time>
   <time name="total">    0.80    0.80</time>
   <energy>
    <i name="alphaZ">     -0.40299145 </i>
    <i name="ewald">   -146.45584482 </i>
    <i name="hartreedc">     -0.21678030 </i>
    <i name="XCdc">    -52.30722325 </i>
    <i name="pawpsdc">     71.33199662 </i>
    <i name="pawaedc">     -7.44482486 </i>
    <i name="eentropy">     -0.00068739 </i>
    <i name="bandstr">     21.00129924 </i>
    <i name="atom">    107.07691413 </i>
    <i name="e_fr_energy">     -7.41814209 </i>
    <i name="e_wo_entrp">     -7.41745470 </i>
    <i name="e_0_energy">     -7.41791296 </i>
   </energy>
  </scstep>
  <structure>
   <crystal>
    <varray name="basis" >
     <v>       2.81245500       0.00000000       0.00000000 </v>
     <v>      -1.40622800       2.43565800       0.00000000 </v>
     <v>       0.00000000       0.00000000       4.86685000 </v>
    </varray>
    <i name="volume">     33.33879133 </i>
    <varray name="rec_basis" >
     <v>       0.35556124       0.20528341       0.00000000 </v>
     <v>       0.00000000       0.41056667       0.00000000 </v>
     <v>       0.00000000       0.00000000       0.20547171 </v>
    </varray>
   </crystal>
   <varray name="positions" >
    <v>       0.00000000       0.00000000       0.00000000 </v>
    <v>       0.66666700       0.33333300       0.50000000 </v>
   </varray>
  </structure>
  <varray name="forces" >
   <v>      -0.00000000       0.00000000       0.00000000 </v>
   <v>       0.00000000      -0.00000000      -0.00000000 </v>
  </varray>
  <varray name="stress" >
   <v>      10.27405100      -0.00000211      -0.00000000 </v>
   <v>      -0.00000211      10.27405541       0.00000000 </v>
   <v>      -0.00000000      -0.00000000     -19.05423317 </v>
  </varray>
  <energy>
   <i name="e_fr_energy">     -7.41814209 </i>
   <i name="e_wo_entrp">     -7.41745470 </i>
   <i name="e_0_energy">     -7.41791296 </i>
  </energy>
  <time name="totalsc">   14.20   14.29</time>
 </calculation>
 <calculation>
  <scstep>
   <time name="dav">    2.26    2.27</time>
   <time name="total">    2.43    2.44</time>
   <energy>
    <i name="alphaZ">     -0.40271861 </i>
    <i name="ewald">   -146.45531972 </i>
    <i name="hartreedc">     -0.21694843 </i>
    <i name="XCdc">    -52.30856985 </i>
    <i name="pawpsdc">     71.33874204 </i>
    <i name="pawaedc">     -7.45218870 </i>
    <i name="eentropy">     -0.00005318 </i>
    <i name="bandstr">     20.99546602 </i>
    <i name="atom">    107.07691413 </i>
    <i name="e_fr_energy">     -7.42467630 </i>
    <i name="e_wo_entrp">     -7.42462311 </i>
    <i name="e_0_energy">     -7.42465857 </i>
   </energy>
  </scstep>
  <scstep>
   <time name="diag">    0.25    0.25</time>
   <time name="diis">    0.40    0.40</time>
   <time name="orth">    0.02    0.02</time>
   <time name="total">    0.85    0.85</time>
   <energy>
    <i name="e_fr_energy">     -7.42415367 </i>
    <i name="e_wo_entrp">     -7.42405456 </i>
    <i name="e_0_energy">     -7.42412063 </i>
   </energy>
  </scstep>
  <scstep>
   <time name="diag">    0.25    0.25</time>
   <time name="diis">    0.40    0.40</time>
   <time name="orth">    0.02    0.02</time>
   <time name="total">    0.84    0.84</time>
   <energy>
    <i name="e_fr_energy">     -7.42390483 </i>
    <i name="e_wo_entrp">     -7.42374520 </i>
    <i name="e_0_energy">     -7.42385162 </i>
   </energy>
  </scstep>
  <scstep>
   <time name="diag">    0.25    0.26</time>
   <time name="diis">    0.38    0.39</time>
   <time name="orth">    0.02    0.02</time>
   <time name="total">    0.78    0.78</time>
   <energy>
    <i name="alphaZ">     -0.40271861 </i>
    <i name="ewald">   -146.45531972 </i>
    <i name="hartreedc">     -0.20669951 </i>
    <i name="XCdc">    -52.31020298 </i>
    <i name="pawpsdc">     71.31660885 </i>
    <i name="pawaedc">     -7.42925935 </i>
    <i name="eentropy">     -0.00015958 </i>
    <i name="bandstr">     20.98693250 </i>
    <i name="atom">    107.07691413 </i>
    <i name="e_fr_energy">     -7.42390427 </i>
    <i name="e_wo_entrp">     -7.42374469 </i>
    <i name="e_0_energy">     -7.42385108 </i>
   </energy>
  </scstep>
  <structure>
   <crystal>
    <varray name="basis" >
     <v>       2.82695833      -0.00000000      -0.00000000 </v>
     <v>      -1.41347967       2.44821826       0.00000000 </v>
     <v>      -0.00000000      -0.00000000       4.82030426 </v>
    </varray>
    <i name="volume">     33.36137889 </i>
    <varray name="rec_basis" >
     <v>       0.35373709       0.20423023       0.00000000 </v>
     <v>       0.00000000       0.40846031       0.00000000 </v>
     <v>       0.00000000      -0.00000000       0.20745578 </v>
    </varray>
   </crystal>
   <varray name="positions" >
    <v>       1.00000000       0.00000000       0.00000000 </v>
    <v>       0.66666700       0.33333300       0.50000000 </v>
   </varray>
  </structure>
  <varray name="forces" >
   <v>       0.00000000      -0.00000000       0.00000000 </v>
   <v>      -0.00000000       0.00000000      -0.00000000 </v>
  </varray>
  <varray name="stress" >
   <v>       8.22443114      -0.00000171      -0.00000000 </v>
   <v>      -0.00000171       8.22443470      -0.00000000 </v>
   <v>      -0.00000000      -0.00000000     -19.74941321 </v>
  </varray>
  <energy>
   <i name="e_fr_energy">     -7.42390427 </i>
   <i name="e_wo_entrp">     -7.42374469 </i>
   <i name="e_0_energy">     -7.42385108 </i>
  </energy>
  <time name="totalsc">    5.95    5.98</time>
 </calculation>
 <calculation>
  <scstep>
   <time name="dav">    2.29    2.30</time>
   <time name="total">    2.46    2.47</time>
   <energy>
    <i name="alphaZ">     -0.40225522 </i>
    <i name="ewald">   -146.43646923 </i>
    <i name="hartreedc">     -0.20648200 </i>
    <i name="XCdc">    -52.31417636 </i>
    <i name="pawpsdc">     71.31715676 </i>
    <i name="pawaedc">     -7.42985348 </i>
    <i name="eentropy">      0.00118127 </i>
    <i name="bandstr">     20.95907124 </i>
    <i name="atom">    107.07691413 </i>
    <i name="e_fr_energy">     -7.43491291 </i>
    <i name="e_wo_entrp">     -7.43609417 </i>
    <i name="e_0_energy">     -7.43530666 </i>
   </energy>
  </scstep>
  <scstep>
   <time name="diag">    0.25    0.25</time>
   <time name="diis">    0.40    0.41</time>
   <time name="orth">    0.02    0.02</time>
   <time name="total">    0.85    0.85</time>
   <energy>
    <i name="e_fr_energy">     -7.43132560 </i>
    <i name="e_wo_entrp">     -7.43261115 </i>
    <i name="e_0_energy">     -7.43175412 </i>
   </energy>
  </scstep>
  <scstep>
   <time name="diag">    0.25    0.25</time>
   <time name="diis">    0.41    0.41</time>
   <time name="orth">    0.02    0.02</time>
   <time name="total">    0.85    0.85</time>
   <energy>
    <i name="e_fr_energy">     -7.42957388 </i>
    <i name="e_wo_entrp">     -7.43101711 </i>
    <i name="e_0_energy">     -7.43005496 </i>
   </energy>
  </scstep>
  <scstep>
   <time name="diag">    0.25    0.25</time>
   <time name="diis">    0.40    0.40</time>
   <time name="orth">    0.02    0.02</time>
   <time name="total">    0.79    0.80</time>
   <energy>
    <i name="alphaZ">     -0.40225522 </i>
    <i name="ewald">   -146.43646923 </i>
    <i name="hartreedc">     -0.19509798 </i>
    <i name="XCdc">    -52.31673496 </i>
    <i name="pawpsdc">     71.27934852 </i>
    <i name="pawaedc">     -7.39013378 </i>
    <i name="eentropy">      0.00144349 </i>
    <i name="bandstr">     20.95340860 </i>
    <i name="atom">    107.07691413 </i>
    <i name="e_fr_energy">     -7.42957644 </i>
    <i name="e_wo_entrp">     -7.43101993 </i>
    <i name="e_0_energy">     -7.43005760 </i>
   </energy>
  </scstep>
  <structure>
   <crystal>
    <varray name="basis" >
     <v>       2.87046832      -0.00000001      -0.00000000 </v>
     <v>      -1.43523468       2.48589905       0.00000000 </v>
     <v>      -0.00000000      -0.00000000       4.68066706 </v>
    </varray>
    <i name="volume">     33.39981002 </i>
    <varray name="rec_basis" >
     <v>       0.34837521       0.20113455       0.00000000 </v>
     <v>       0.00000000       0.40226895       0.00000000 </v>
     <v>       0.00000000      -0.00000000       0.21364476 </v>
    </varray>
   </crystal>
   <varray name="positions" >
    <v>       0.00000000       0.00000000       0.00000000 </v>
    <v>       0.66666700       0.33333300       0.50000000 </v>
   </varray>
  </structure>
  <varray name="forces" >
   <v>       0.00000000      -0.00000000       0.00000000 </v>
   <v>      -0.00000000       0.00000000      -0.00000000 </v>
  </varray>
  <varray name="stress" >
   <v>      -4.84886316       0.00000104      -0.00000000 </v>
   <v>       0.00000104      -4.84886533      -0.00000000 </v>
   <v>      -0.00000000       0.00000000      -4.66642543 </v>
  </varray>
  <energy>
   <i name="e_fr_energy">     -7.42957644 </i>
   <i name="e_wo_entrp">     -7.43101993 </i>
   <i name="e_0_energy">     -7.43005760 </i>
  </energy>
  <time name="totalsc">    6.00    6.04</time>
 </calculation>
 <calculation>
  <scstep>
   <time name="dav">    2.51    2.52</time>
   <time name="total">    2.68    2.70</time>
   <energy>
    <i name="alphaZ">     -0.40687326 </i>
    <i name="ewald">   -146.99412082 </i>
    <i name="hartreedc">     -0.19570607 </i>
    <i name="XCdc">    -52.28001503 </i>
    <i name="pawpsdc">     71.27944285 </i>
    <i name="pawaedc">     -7.39022786 </i>
    <i name="eentropy">      0.00138411 </i>
    <i name="bandstr">     21.47932605 </i>
    <i name="atom">    107.07691413 </i>
    <i name="e_fr_energy">     -7.42987591 </i>
    <i name="e_wo_entrp">     -7.43126002 </i>
    <i name="e_0_energy">     -7.43033728 </i>
   </energy>
  </scstep>
  <scstep>
   <time name="diag">    0.25    0.25</time>
   <time name="diis">    0.39    0.39</time>
   <time name="orth">    0.02    0.02</time>
   <time name="total">    0.78    0.79</time>
   <energy>
    <i name="alphaZ">     -0.40687326 </i>
    <i name="ewald">   -146.99412082 </i>
    <i name="hartreedc">     -0.19645566 </i>
    <i name="XCdc">    -52.27667590 </i>
    <i name="pawpsdc">     71.30464352 </i>
    <i name="pawaedc">     -7.41666394 </i>
    <i name="eentropy">      0.00138619 </i>
    <i name="bandstr">     21.47805158 </i>
    <i name="atom">    107.07691413 </i>
    <i name="e_fr_energy">     -7.42979417 </i>
    <i name="e_wo_entrp">     -7.43118036 </i>
    <i name="e_0_energy">     -7.43025624 </i>
   </energy>
  </scstep>
  <structure>
   <crystal>
    <varray name="basis" >
     <v>       2.86256138      -0.00000001      -0.00000000 </v>
     <v>      -1.43128121       2.47905143       0.00000000 </v>
     <v>      -0.00000000       0.00000000       4.65314082 </v>
    </varray>
    <i name="volume">     33.02072005 </i>
    <varray name="rec_basis" >
     <v>       0.34933749       0.20169012       0.00000000 </v>
     <v>       0.00000000       0.40338010      -0.00000000 </v>
     <v>       0.00000000      -0.00000000       0.21490860 </v>
    </varray>
   </crystal>
   <varray name="positions" >
    <v>       0.00000000       1.00000000       0.00000000 </v>
    <v>       0.66666700       0.33333300       0.50000000 </v>
   </varray>
  </structure>
  <varray name="forces" >
   <v>       0.00000000      -0.00000000      -0.00000000 </v>
   <v>      -0.00000000       0.00000000       0.00000000 </v>
  </varray>
  <varray name="stress" >
   <v>       3.24208074      -0.00000069      -0.00000000 </v>
   <v>      -0.00000069       3.24208218       0.00000000 </v>
   <v>       0.00000000       0.00000000       2.33039942 </v>
  </varray>
  <energy>
   <i name="e_fr_energy">     -7.42979417 </i>
   <i name="e_wo_entrp">     -7.43118036 </i>
   <i name="e_0_energy">     -7.43025624 </i>
  </energy>
  <time name="totalsc">    4.52    4.55</time>
 </calculation>
 <calculation>
  <scstep>
   <time name="dav">    2.19    2.20</time>
   <time name="total">    2.37    2.38</time>
   <energy>
    <i name="alphaZ">     -0.40517650 </i>
    <i name="ewald">   -146.78976888 </i>
    <i name="hartreedc">     -0.19761655 </i>
    <i name="XCdc">    -52.28468730 </i>
    <i name="pawpsdc">     71.34513555 </i>
    <i name="pawaedc">     -7.45921112 </i>
    <i name="eentropy">      0.00141918 </i>
    <i name="bandstr">     21.28305602 </i>
    <i name="atom">    107.07691413 </i>
    <i name="e_fr_energy">     -7.42993548 </i>
    <i name="e_wo_entrp">     -7.43135466 </i>
    <i name="e_0_energy">     -7.43040854 </i>
   </energy>
  </scstep>
  <scstep>
   <time name="diag">    0.28    0.28</time>
   <time name="diis">    0.40    0.40</time>
   <time name="orth">    0.02    0.02</time>
   <time name="total">    0.83    0.83</time>
   <energy>
    <i name="alphaZ">     -0.40517650 </i>
    <i name="ewald">   -146.78976888 </i>
    <i name="hartreedc">     -0.19733296 </i>
    <i name="XCdc">    -52.28575302 </i>
    <i name="pawpsdc">     71.33593569 </i>
    <i name="pawaedc">     -7.44961209 </i>
    <i name="eentropy">      0.00141723 </i>
    <i name="bandstr">     21.28345198 </i>
    <i name="atom">    107.07691413 </i>
    <i name="e_fr_energy">     -7.42992443 </i>
    <i name="e_wo_entrp">     -7.43134166 </i>
    <i name="e_0_energy">     -7.43039684 </i>
   </energy>
  </scstep>
  <structure>
   <crystal>
    <varray name="basis" >
     <v>       2.86545205      -0.00000001      -0.00000000 </v>
     <v>      -1.43272654       2.48155482       0.00000000 </v>
     <v>      -0.00000000       0.00000000       4.66320402 </v>
    </varray>
    <i name="volume">     33.15900072 </i>
    <varray name="rec_basis" >
     <v>       0.34898508       0.20148666       0.00000000 </v>
     <v>       0.00000000       0.40297317      -0.00000000 </v>
     <v>       0.00000000      -0.00000000       0.21444483 </v>
    </varray>
   </crystal>
   <varray name="positions" >
    <v>       0.00000000       0.00000000       0.00000000 </v>
    <v>       0.66666700       0.33333300       0.50000000 </v>
   </varray>
  </structure>
  <varray name="forces" >
   <v>      -0.00000000       0.00000000      -0.00000000 </v>
   <v>       0.00000000      -0.00000000       0.00000000 </v>
  </varray>
  <varray name="stress" >
   <v>       0.50959273      -0.00000011       0.00000000 </v>
   <v>      -0.00000011       0.50959295      -0.00000000 </v>
   <v>      -0.00000000       0.00000000       0.79746894 </v>
  </varray>
  <energy>
   <i name="e_fr_energy">     -7.42992443 </i>
   <i name="e_wo_entrp">     -7.43134166 </i>
   <i name="e_0_energy">     -7.43039684 </i>
  </energy>
  <time name="totalsc">    4.18    4.21</time>
  <eigenvalues>
   <array>
    <dimension dim="1">band</dimension>
    <dimension dim="2">kpoint</dimension>
    <dimension dim="3">spin</dimension>
    <field>eigene</field>
    <field>occ</field>
    <set>
     <set comment="spin 1">
      <set comment="kpoint 1">
       <r>   -3.1539    1.0000 </r>
       <r>    3.3959    1.0000 </r>
       <r>    3.6165    1.0000 </r>
       <r>   18.4197    0.0000 </r>
       <r>   18.4197    0.0000 </r>
       <r>   18.8618    0.0000 </r>
       <r>   18.8618    0.0000 </r>
       <r>   20.0677    0.0000 </r>
       <r>   21.8509    0.0000 </r>
       <r>   22.2934    0.0000 </r>
       <r>   23.7290    0.0000 </r>
       <r>   23.7290    0.0000 </r>
       <r>   23.8414    0.0000 </r>
       <r>   23.8414    0.0000 </r>
       <r>   24.1007    0.0000 </r>
       <r>   24.1007    0.0000 </r>
       <r>   24.1691    0.0000 </r>
       <r>   26.7839    0.0000 </r>
       <r>   26.7839    0.0000 </r>
       <r>   27.1704    0.0000 </r>
       <r>   29.6567    0.0000 </r>
       <r>   29.7998    0.0000 </r>
       <r>   36.3733    0.0000 </r>
       <r>   39.7591    0.0000 </r>
       <r>   39.7591    0.0000 </r>
       <r>   44.8567    0.0000 </r>
       <r>   44.8567    0.0000 </r>
       <r>   45.6126    0.0000 </r>
       <r>   45.6126    0.0000 </r>
       <r>   46.1346    0.0000 </r>
       <r>   46.1346    0.0000 </r>
       <r>   47.2793    0.0000 </r>
      </set>
      <set comment="kpoint 2">
       <r>   -3.0117    1.0000 </r>
       <r>    3.5278    1.0000 </r>
       <r>    3.7554    1.0000 </r>
       <r>   16.1231    0.0000 </r>
       <r>   17.1543    0.0000 </r>
       <r>   18.4667    0.0000 </r>
       <r>   20.3720    0.0000 </r>
       <r>   20.9243    0.0000 </r>
       <r>   21.7172    0.0000 </r>
       <r>   22.0300    0.0000 </r>
       <r>   22.5890    0.0000 </r>
       <r>   22.8269    0.0000 </r>
       <r>   23.0998    0.0000 </r>
       <r>   23.1491    0.0000 </r>
       <r>   24.3775    0.0000 </r>
       <r>   25.4692    0.0000 </r>
       <r>   25.7195    0.0000 </r>
       <r>   25.8970    0.0000 </r>
       <r>   27.6970    0.0000 </r>
       <r>   28.5626    0.0000 </r>
       <r>   30.7872    0.0000 </r>
       <r>   31.2746    0.0000 </r>
       <r>   36.7405    0.0000 </r>
       <r>   39.0140    0.0000 </r>
       <r>   39.4159    0.0000 </r>
       <r>   43.8610    0.0000 </r>
       <r>   44.4488    0.0000 </r>
       <r>   44.4888    0.0000 </r>
       <r>   45.5210    0.0000 </r>
       <r>   46.4058    0.0000 </r>
       <r>   47.4040    0.0000 </r>
       <r>   47.8158    0.0000 </r>
      </set>
      <set comment="kpoint 3">
       <r>   -2.5862    1.0000 </r>
       <r>    3.9236    1.0000 </r>
       <r>    4.1692    1.0000 </r>
       <r>   13.2842    0.0000 </r>
       <r>   15.9387    0.0000 </r>
       <r>   17.2893    0.0000 </r>
       <r>   19.2377    0.0000 </r>
       <r>   19.4144    0.0000 </r>
       <r>   21.4696    0.0000 </r>
       <r>   21.9972    0.0000 </r>
       <r>   22.0133    0.0000 </r>
       <r>   22.3636    0.0000 </r>
       <r>   22.8306    0.0000 </r>
       <r>   23.8891    0.0000 </r>
       <r>   24.7426    0.0000 </r>
       <r>   25.9969    0.0000 </r>
       <r>   27.2225    0.0000 </r>
       <r>   28.1809    0.0000 </r>
       <r>   29.4566    0.0000 </r>
       <r>   30.8088    0.0000 </r>
       <r>   33.0635    0.0000 </r>
       <r>   33.7931    0.0000 </r>
       <r>   37.6600    0.0000 </r>
       <r>   37.9285    0.0000 </r>
       <r>   38.7945    0.0000 </r>
       <r>   41.6526    0.0000 </r>
       <r>   43.3426    0.0000 </r>
       <r>   43.6400    0.0000 </r>
       <r>   45.7839    0.0000 </r>
       <r>   47.1386    0.0000 </r>
       <r>   48.8015    0.0000 </r>
       <r>   49.1094    0.0000 </r>
      </set>
      <set comment="kpoint 4">
       <r>   -1.8798    1.0000 </r>
       <r>    4.5830    1.0000 </r>
       <r>    4.8457    1.0000 </r>
       <r>   10.5866   -0.0000 </r>
       <r>   14.9652    0.0000 </r>
       <r>   15.9014    0.0000 </r>
       <r>   16.6070    0.0000 </r>
       <r>   17.4672    0.0000 </r>
       <r>   20.6201    0.0000 </r>
       <r>   20.9959    0.0000 </r>
       <r>   22.0875    0.0000 </r>
       <r>   22.7861    0.0000 </r>
       <r>   24.2714    0.0000 </r>
       <r>   24.3829    0.0000 </r>
       <r>   24.5471    0.0000 </r>
       <r>   27.8793    0.0000 </r>
       <r>   29.1714    0.0000 </r>
       <r>   31.3397    0.0000 </r>
       <r>   31.6406    0.0000 </r>
       <r>   33.0865    0.0000 </r>
       <r>   33.9064    0.0000 </r>
       <r>   35.6699    0.0000 </r>
       <r>   37.8197    0.0000 </r>
       <r>   38.4707    0.0000 </r>
       <r>   39.7350    0.0000 </r>
       <r>   41.0419    0.0000 </r>
       <r>   42.4116    0.0000 </r>
       <r>   42.8829    0.0000 </r>
       <r>   45.0332    0.0000 </r>
       <r>   48.3325    0.0000 </r>
       <r>   49.2724    0.0000 </r>
       <r>   50.5418    0.0000 </r>
      </set>
      <set comment="kpoint 5">
       <r>   -0.8970    1.0000 </r>
       <r>    5.5047    1.0000 </r>
       <r>    5.7271    1.0000 </r>
       <r>    8.1552   -0.0269 </r>
       <r>   14.0981    0.0000 </r>
       <r>   14.1487    0.0000 </r>
       <r>   14.2361    0.0000 </r>
       <r>   16.2250    0.0000 </r>
       <r>   19.9749    0.0000 </r>
       <r>   20.2043    0.0000 </r>
       <r>   21.8493    0.0000 </r>
       <r>   22.3028    0.0000 </r>
       <r>   24.7509    0.0000 </r>
       <r>   25.2413    0.0000 </r>
       <r>   26.9598    0.0000 </r>
       <r>   29.5779    0.0000 </r>
       <r>   31.2378    0.0000 </r>
       <r>   31.9201    0.0000 </r>
       <r>   32.8429    0.0000 </r>
       <r>   35.2267    0.0000 </r>
       <r>   36.0165    0.0000 </r>
       <r>   36.3169    0.0000 </r>
       <r>   38.3430    0.0000 </r>
       <r>   38.9979    0.0000 </r>
       <r>   41.7057    0.0000 </r>
       <r>   42.2476    0.0000 </r>
       <r>   43.1702    0.0000 </r>
       <r>   43.5731    0.0000 </r>
       <r>   44.4258    0.0000 </r>
       <r>   44.9874    0.0000 </r>
       <r>   48.0733    0.0000 </r>
       <r>   49.3622    0.0000 </r>
      </set>
      <set comment="kpoint 6">
       <r>    0.3560    1.0000 </r>
       <r>    5.5366    1.0000 </r>
       <r>    6.6833    1.0000 </r>
       <r>    7.2775    1.0000 </r>
       <r>   11.9293   -0.0000 </r>
       <r>   12.1442    0.0000 </r>
       <r>   13.7508    0.0000 </r>
       <r>   15.5483    0.0000 </r>
       <r>   19.5459    0.0000 </r>
       <r>   19.6681    0.0000 </r>
       <r>   21.5689    0.0000 </r>
       <r>   21.8561    0.0000 </r>
       <r>   25.6882    0.0000 </r>
       <r>   26.3747    0.0000 </r>
       <r>   29.5138    0.0000 </r>
       <r>   30.1170    0.0000 </r>
       <r>   30.3190    0.0000 </r>
       <r>   33.1623    0.0000 </r>
       <r>   33.5723    0.0000 </r>
       <r>   35.6516    0.0000 </r>
       <r>   37.9343    0.0000 </r>
       <r>   38.8943    0.0000 </r>
       <r>   40.7806    0.0000 </r>
       <r>   41.1965    0.0000 </r>
       <r>   41.2005    0.0000 </r>
       <r>   41.8341    0.0000 </r>
       <r>   41.8688    0.0000 </r>
       <r>   43.7491    0.0000 </r>
       <r>   45.1759    0.0000 </r>
       <r>   46.3808    0.0000 </r>
       <r>   47.0994    0.0000 </r>
       <r>   47.7046    0.0000 </r>
      </set>
      <set comment="kpoint 7">
       <r>    1.8674    1.0000 </r>
       <r>    3.6401    1.0000 </r>
       <r>    8.0703    0.0831 </r>
       <r>    8.5643   -0.0001 </r>
       <r>   10.0181   -0.0000 </r>
       <r>   10.3266   -0.0000 </r>
       <r>   13.5085    0.0000 </r>
       <r>   15.2326    0.0000 </r>
       <r>   19.3319    0.0000 </r>
       <r>   19.3980    0.0000 </r>
       <r>   21.4009    0.0000 </r>
       <r>   21.6180    0.0000 </r>
       <r>   26.8705    0.0000 </r>
       <r>   27.5408    0.0000 </r>
       <r>   28.4879    0.0000 </r>
       <r>   29.7230    0.0000 </r>
       <r>   31.9002    0.0000 </r>
       <r>   33.7733    0.0000 </r>
       <r>   34.0052    0.0000 </r>
       <r>   36.1032    0.0000 </r>
       <r>   39.5608    0.0000 </r>
       <r>   39.9618    0.0000 </r>
       <r>   40.9775    0.0000 </r>
       <r>   41.3789    0.0000 </r>
       <r>   41.6651    0.0000 </r>
       <r>   41.9005    0.0000 </r>
       <r>   42.9081    0.0000 </r>
       <r>   43.5094    0.0000 </r>
       <r>   45.4928    0.0000 </r>
       <r>   45.7914    0.0000 </r>
       <r>   47.1111    0.0000 </r>
       <r>   47.3700    0.0000 </r>
      </set>
      <set comment="kpoint 8">
       <r>   -2.7279    1.0000 </r>
       <r>    3.7917    1.0000 </r>
       <r>    4.0318    1.0000 </r>
       <r>   14.7724    0.0000 </r>
       <r>   14.7754    0.0000 </r>
       <r>   19.4941    0.0000 </r>
       <r>   19.8443    0.0000 </r>
       <r>   20.2223    0.0000 </r>
       <r>   20.5882    0.0000 </r>
       <r>   20.8099    0.0000 </r>
       <r>   21.5246    0.0000 </r>
       <r>   22.4714    0.0000 </r>
       <r>   22.9170    0.0000 </r>
       <r>   25.0310    0.0000 </r>
       <r>   25.5872    0.0000 </r>
       <r>   25.7536    0.0000 </r>
       <r>   26.3878    0.0000 </r>
       <r>   27.3175    0.0000 </r>
       <r>   27.5644    0.0000 </r>
       <r>   30.9323    0.0000 </r>
       <r>   32.4287    0.0000 </r>
       <r>   33.1405    0.0000 </r>
       <r>   37.3913    0.0000 </r>
       <r>   38.2176    0.0000 </r>
       <r>   38.7115    0.0000 </r>
       <r>   42.7437    0.0000 </r>
       <r>   42.7449    0.0000 </r>
       <r>   44.3786    0.0000 </r>
       <r>   45.9775    0.0000 </r>
       <r>   47.0939    0.0000 </r>
       <r>   47.5275    0.0000 </r>
       <r>   49.0000    0.0000 </r>
      </set>
      <set comment="kpoint 9">
       <r>   -2.1619    1.0000 </r>
       <r>    4.3193    1.0000 </r>
       <r>    4.5778    1.0000 </r>
       <r>   12.0020    0.0000 </r>
       <r>   13.6270    0.0000 </r>
       <r>   17.9049    0.0000 </r>
       <r>   17.9403    0.0000 </r>
       <r>   19.0323    0.0000 </r>
       <r>   19.6588    0.0000 </r>
       <r>   20.0289    0.0000 </r>
       <r>   21.8372    0.0000 </r>
       <r>   23.0681    0.0000 </r>
       <r>   23.2726    0.0000 </r>
       <r>   25.3968    0.0000 </r>
       <r>   25.7291    0.0000 </r>
       <r>   27.4894    0.0000 </r>
       <r>   27.8225    0.0000 </r>
       <r>   28.9327    0.0000 </r>
       <r>   30.2818    0.0000 </r>
       <r>   33.1594    0.0000 </r>
       <r>   34.3643    0.0000 </r>
       <r>   34.9087    0.0000 </r>
       <r>   38.1316    0.0000 </r>
       <r>   38.1890    0.0000 </r>
       <r>   38.5478    0.0000 </r>
       <r>   41.0063    0.0000 </r>
       <r>   41.8987    0.0000 </r>
       <r>   44.0411    0.0000 </r>
       <r>   46.3779    0.0000 </r>
       <r>   47.2245    0.0000 </r>
       <r>   48.2166    0.0000 </r>
       <r>   50.6910    0.0000 </r>
      </set>
      <set comment="kpoint 10">
       <r>   -1.3173    1.0000 </r>
       <r>    5.1100    1.0000 </r>
       <r>    5.3696    1.0000 </r>
       <r>    9.4226   -0.0000 </r>
       <r>   12.7014    0.0000 </r>
       <r>   15.4177    0.0000 </r>
       <r>   15.7267    0.0000 </r>
       <r>   18.1604    0.0000 </r>
       <r>   18.9084    0.0000 </r>
       <r>   19.0230    0.0000 </r>
       <r>   23.0768    0.0000 </r>
       <r>   23.6646    0.0000 </r>
       <r>   24.0575    0.0000 </r>
       <r>   25.1467    0.0000 </r>
       <r>   25.9054    0.0000 </r>
       <r>   29.4278    0.0000 </r>
       <r>   29.9662    0.0000 </r>
       <r>   31.0298    0.0000 </r>
       <r>   32.9149    0.0000 </r>
       <r>   33.6752    0.0000 </r>
       <r>   34.8776    0.0000 </r>
       <r>   37.0069    0.0000 </r>
       <r>   37.6797    0.0000 </r>
       <r>   38.8499    0.0000 </r>
       <r>   41.1217    0.0000 </r>
       <r>   41.6889    0.0000 </r>
       <r>   42.2205    0.0000 </r>
       <r>   43.5252    0.0000 </r>
       <r>   44.9927    0.0000 </r>
       <r>   46.4577    0.0000 </r>
       <r>   49.0687    0.0000 </r>
       <r>   49.1866    0.0000 </r>
      </set>
      <set comment="kpoint 11">
       <r>   -0.1993    1.0000 </r>
       <r>    6.1448    1.0000 </r>
       <r>    6.1613    1.0000 </r>
       <r>    7.3355    1.0001 </r>
       <r>   11.9473   -0.0000 </r>
       <r>   13.0932    0.0000 </r>
       <r>   13.6790    0.0000 </r>
       <r>   17.5329    0.0000 </r>
       <r>   18.3291    0.0000 </r>
       <r>   18.3533    0.0000 </r>
       <r>   23.0610    0.0000 </r>
       <r>   23.6351    0.0000 </r>
       <r>   25.4391    0.0000 </r>
       <r>   25.6411    0.0000 </r>
       <r>   27.4775    0.0000 </r>
       <r>   30.8863    0.0000 </r>
       <r>   31.1151    0.0000 </r>
       <r>   31.8398    0.0000 </r>
       <r>   32.6269    0.0000 </r>
       <r>   35.7929    0.0000 </r>
       <r>   36.2525    0.0000 </r>
       <r>   36.9568    0.0000 </r>
       <r>   39.9248    0.0000 </r>
       <r>   40.8068    0.0000 </r>
       <r>   41.4466    0.0000 </r>
       <r>   42.3105    0.0000 </r>
       <r>   43.1119    0.0000 </r>
       <r>   44.8192    0.0000 </r>
       <r>   44.8760    0.0000 </r>
       <r>   45.5864    0.0000 </r>
       <r>   46.6444    0.0000 </r>
       <r>   49.1659    0.0000 </r>
      </set>
      <set comment="kpoint 12">
       <r>    1.1842    1.0000 </r>
       <r>    4.6913    1.0000 </r>
       <r>    7.4588    1.0014 </r>
       <r>    7.9482    0.5145 </r>
       <r>   10.9813   -0.0000 </r>
       <r>   11.0181   -0.0000 </r>
       <r>   12.2877    0.0000 </r>
       <r>   17.1510    0.0000 </r>
       <r>   17.9164    0.0000 </r>
       <r>   18.0154    0.0000 </r>
       <r>   22.9113    0.0000 </r>
       <r>   23.3939    0.0000 </r>
       <r>   26.4058    0.0000 </r>
       <r>   26.9869    0.0000 </r>
       <r>   29.3902    0.0000 </r>
       <r>   29.4296    0.0000 </r>
       <r>   30.9602    0.0000 </r>
       <r>   33.1722    0.0000 </r>
       <r>   33.3321    0.0000 </r>
       <r>   35.7431    0.0000 </r>
       <r>   38.6007    0.0000 </r>
       <r>   38.7183    0.0000 </r>
       <r>   39.9552    0.0000 </r>
       <r>   41.6118    0.0000 </r>
       <r>   42.2506    0.0000 </r>
       <r>   42.7111    0.0000 </r>
       <r>   43.3639    0.0000 </r>
       <r>   44.1560    0.0000 </r>
       <r>   45.1474    0.0000 </r>
       <r>   45.3855    0.0000 </r>
       <r>   47.9092    0.0000 </r>
       <r>   48.1701    0.0000 </r>
      </set>
      <set comment="kpoint 13">
       <r>    2.7236    1.0000 </r>
       <r>    2.9306    1.0000 </r>
       <r>    8.6550   -0.0000 </r>
       <r>    9.2050   -0.0000 </r>
       <r>    9.5611   -0.0000 </r>
       <r>    9.6719   -0.0000 </r>
       <r>   11.9546    0.0000 </r>
       <r>   17.0229    0.0000 </r>
       <r>   17.7792    0.0000 </r>
       <r>   17.9021    0.0000 </r>
       <r>   22.8467    0.0000 </r>
       <r>   23.2937    0.0000 </r>
       <r>   27.3992    0.0000 </r>
       <r>   27.8234    0.0000 </r>
       <r>   28.1550    0.0000 </r>
       <r>   29.5296    0.0000 </r>
       <r>   31.7199    0.0000 </r>
       <r>   33.2574    0.0000 </r>
       <r>   33.3664    0.0000 </r>
       <r>   35.8910    0.0000 </r>
       <r>   39.1751    0.0000 </r>
       <r>   40.0272    0.0000 </r>
       <r>   41.1013    0.0000 </r>
       <r>   41.7364    0.0000 </r>
       <r>   41.7382    0.0000 </r>
       <r>   41.7518    0.0000 </r>
       <r>   42.5503    0.0000 </r>
       <r>   43.2141    0.0000 </r>
       <r>   46.5965    0.0000 </r>
       <r>   47.2017    0.0000 </r>
       <r>   47.8503    0.0000 </r>
       <r>   48.2606    0.0000 </r>
      </set>
      <set comment="kpoint 14">
       <r>   -1.4577    1.0000 </r>
       <r>    4.9784    1.0000 </r>
       <r>    5.2437    1.0000 </r>
       <r>   10.9230   -0.0000 </r>
       <r>   11.0024   -0.0000 </r>
       <r>   16.4445    0.0000 </r>
       <r>   16.9335    0.0000 </r>
       <r>   17.6108    0.0000 </r>
       <r>   17.8118    0.0000 </r>
       <r>   20.6402    0.0000 </r>
       <r>   21.4476    0.0000 </r>
       <r>   23.8494    0.0000 </r>
       <r>   23.9231    0.0000 </r>
       <r>   26.6588    0.0000 </r>
       <r>   27.3989    0.0000 </r>
       <r>   28.0590    0.0000 </r>
       <r>   28.4716    0.0000 </r>
       <r>   30.1730    0.0000 </r>
       <r>   32.9225    0.0000 </r>
       <r>   33.8625    0.0000 </r>
       <r>   34.0719    0.0000 </r>
       <r>   37.2353    0.0000 </r>
       <r>   37.8720    0.0000 </r>
       <r>   39.0900    0.0000 </r>
       <r>   40.4465    0.0000 </r>
       <r>   40.7540    0.0000 </r>
       <r>   41.8814    0.0000 </r>
       <r>   45.0612    0.0000 </r>
       <r>   45.3323    0.0000 </r>
       <r>   47.1769    0.0000 </r>
       <r>   47.3062    0.0000 </r>
       <r>   49.3599    0.0000 </r>
      </set>
      <set comment="kpoint 15">
       <r>   -0.4778    1.0000 </r>
       <r>    5.8994    1.0000 </r>
       <r>    6.1042    1.0000 </r>
       <r>    8.5416   -0.0001 </r>
       <r>   10.1808   -0.0000 </r>
       <r>   14.4087    0.0000 </r>
       <r>   14.9232    0.0000 </r>
       <r>   16.5791    0.0000 </r>
       <r>   16.6907    0.0000 </r>
       <r>   20.3454    0.0000 </r>
       <r>   23.3651    0.0000 </r>
       <r>   24.5614    0.0000 </r>
       <r>   24.6582    0.0000 </r>
       <r>   27.0794    0.0000 </r>
       <r>   27.1693    0.0000 </r>
       <r>   29.6807    0.0000 </r>
       <r>   30.2826    0.0000 </r>
       <r>   31.8303    0.0000 </r>
       <r>   32.3463    0.0000 </r>
       <r>   34.0416    0.0000 </r>
       <r>   35.1616    0.0000 </r>
       <r>   37.4042    0.0000 </r>
       <r>   38.8320    0.0000 </r>
       <r>   41.5805    0.0000 </r>
       <r>   41.6915    0.0000 </r>
       <r>   42.3114    0.0000 </r>
       <r>   43.6839    0.0000 </r>
       <r>   43.9236    0.0000 </r>
       <r>   45.3513    0.0000 </r>
       <r>   45.5066    0.0000 </r>
       <r>   48.4694    0.0000 </r>
       <r>   48.8578    0.0000 </r>
      </set>
      <set comment="kpoint 16">
       <r>    0.7713    1.0000 </r>
       <r>    5.9273    1.0000 </r>
       <r>    7.0763    1.0000 </r>
       <r>    7.6017    1.0164 </r>
       <r>    9.6621   -0.0000 </r>
       <r>   12.2787    0.0000 </r>
       <r>   12.9034    0.0000 </r>
       <r>   15.9476    0.0000 </r>
       <r>   16.1909    0.0000 </r>
       <r>   19.9147    0.0000 </r>
       <r>   24.8734    0.0000 </r>
       <r>   25.2798    0.0000 </r>
       <r>   25.7416    0.0000 </r>
       <r>   26.9593    0.0000 </r>
       <r>   27.9026    0.0000 </r>
       <r>   30.6222    0.0000 </r>
       <r>   31.2195    0.0000 </r>
       <r>   31.7127    0.0000 </r>
       <r>   32.0572    0.0000 </r>
       <r>   34.8828    0.0000 </r>
       <r>   35.1276    0.0000 </r>
       <r>   39.0000    0.0000 </r>
       <r>   39.5774    0.0000 </r>
       <r>   41.3284    0.0000 </r>
       <r>   42.9730    0.0000 </r>
       <r>   43.4223    0.0000 </r>
       <r>   44.0329    0.0000 </r>
       <r>   44.8969    0.0000 </r>
       <r>   45.9551    0.0000 </r>
       <r>   46.6393    0.0000 </r>
       <r>   47.4191    0.0000 </r>
       <r>   48.3689    0.0000 </r>
      </set>
      <set comment="kpoint 17">
       <r>    2.2783    1.0000 </r>
       <r>    4.0435    1.0000 </r>
       <r>    8.4601   -0.0010 </r>
       <r>    8.6248   -0.0000 </r>
       <r>    9.4550   -0.0000 </r>
       <r>   10.3935   -0.0000 </r>
       <r>   11.2482   -0.0000 </r>
       <r>   15.6527    0.0000 </r>
       <r>   15.9446    0.0000 </r>
       <r>   19.6871    0.0000 </r>
       <r>   24.9850    0.0000 </r>
       <r>   25.6215    0.0000 </r>
       <r>   27.4280    0.0000 </r>
       <r>   27.4688    0.0000 </r>
       <r>   29.1604    0.0000 </r>
       <r>   29.1722    0.0000 </r>
       <r>   30.5874    0.0000 </r>
       <r>   32.0125    0.0000 </r>
       <r>   32.3970    0.0000 </r>
       <r>   34.5979    0.0000 </r>
       <r>   37.7116    0.0000 </r>
       <r>   38.2825    0.0000 </r>
       <r>   40.3806    0.0000 </r>
       <r>   41.1086    0.0000 </r>
       <r>   41.6832    0.0000 </r>
       <r>   43.7760    0.0000 </r>
       <r>   44.0596    0.0000 </r>
       <r>   44.4561    0.0000 </r>
       <r>   47.8834    0.0000 </r>
       <r>   48.2419    0.0000 </r>
       <r>   48.9198    0.0000 </r>
       <r>   49.8466    0.0000 </r>
      </set>
      <set comment="kpoint 18">
       <r>    0.6333    1.0000 </r>
       <r>    6.7488    1.0000 </r>
       <r>    6.9475    1.0000 </r>
       <r>    7.7546    1.0235 </r>
       <r>    8.3600   -0.0070 </r>
       <r>   13.3336    0.0000 </r>
       <r>   14.0021    0.0000 </r>
       <r>   14.6425    0.0000 </r>
       <r>   14.8475    0.0000 </r>
       <r>   22.5009    0.0000 </r>
       <r>   23.2556    0.0000 </r>
       <r>   25.4731    0.0000 </r>
       <r>   25.8409    0.0000 </r>
       <r>   28.1445    0.0000 </r>
       <r>   28.9949    0.0000 </r>
       <r>   29.9323    0.0000 </r>
       <r>   30.0368    0.0000 </r>
       <r>   32.0267    0.0000 </r>
       <r>   32.4468    0.0000 </r>
       <r>   32.8124    0.0000 </r>
       <r>   34.2263    0.0000 </r>
       <r>   39.3537    0.0000 </r>
       <r>   39.8321    0.0000 </r>
       <r>   40.4324    0.0000 </r>
       <r>   42.9586    0.0000 </r>
       <r>   44.1724    0.0000 </r>
       <r>   44.7676    0.0000 </r>
       <r>   45.0168    0.0000 </r>
       <r>   45.4604    0.0000 </r>
       <r>   47.2868    0.0000 </r>
       <r>   47.4441    0.0000 </r>
       <r>   49.8639    0.0000 </r>
      </set>
      <set comment="kpoint 19">
       <r>    2.0081    1.0000 </r>
       <r>    5.4831    1.0000 </r>
       <r>    7.1482    1.0000 </r>
       <r>    8.2381   -0.0305 </r>
       <r>    8.9721   -0.0000 </r>
       <r>   11.6740   -0.0000 </r>
       <r>   12.3620    0.0000 </r>
       <r>   13.8213    0.0000 </r>
       <r>   14.1731    0.0000 </r>
       <r>   22.5334    0.0000 </r>
       <r>   25.4551    0.0000 </r>
       <r>   26.4940    0.0000 </r>
       <r>   26.7393    0.0000 </r>
       <r>   28.6782    0.0000 </r>
       <r>   28.6994    0.0000 </r>
       <r>   30.3799    0.0000 </r>
       <r>   30.5181    0.0000 </r>
       <r>   31.0739    0.0000 </r>
       <r>   31.8014    0.0000 </r>
       <r>   33.3199    0.0000 </r>
       <r>   34.2310    0.0000 </r>
       <r>   37.6981    0.0000 </r>
       <r>   40.2498    0.0000 </r>
       <r>   40.8125    0.0000 </r>
       <r>   42.4229    0.0000 </r>
       <r>   43.6951    0.0000 </r>
       <r>   46.3585    0.0000 </r>
       <r>   46.5336    0.0000 </r>
       <r>   48.4228    0.0000 </r>
       <r>   49.2173    0.0000 </r>
       <r>   49.2423    0.0000 </r>
       <r>   49.6213    0.0000 </r>
      </set>
      <set comment="kpoint 20">
       <r>    3.5436    1.0000 </r>
       <r>    3.7344    1.0000 </r>
       <r>    7.0604    1.0000 </r>
       <r>    9.4336   -0.0000 </r>
       <r>    9.9280   -0.0000 </r>
       <r>   10.2761   -0.0000 </r>
       <r>   11.1268   -0.0000 </r>
       <r>   13.6255    0.0000 </r>
       <r>   14.0165    0.0000 </r>
       <r>   22.4448    0.0000 </r>
       <r>   26.8247    0.0000 </r>
       <r>   27.2848    0.0000 </r>
       <r>   27.7465    0.0000 </r>
       <r>   28.0596    0.0000 </r>
       <r>   28.1794    0.0000 </r>
       <r>   30.0048    0.0000 </r>
       <r>   30.5957    0.0000 </r>
       <r>   30.6230    0.0000 </r>
       <r>   31.3627    0.0000 </r>
       <r>   33.2584    0.0000 </r>
       <r>   36.7649    0.0000 </r>
       <r>   37.4058    0.0000 </r>
       <r>   37.8292    0.0000 </r>
       <r>   39.1653    0.0000 </r>
       <r>   44.0458    0.0000 </r>
       <r>   45.4682    0.0000 </r>
       <r>   45.5997    0.0000 </r>
       <r>   46.5585    0.0000 </r>
       <r>   49.8909    0.0000 </r>
       <r>   50.3801    0.0000 </r>
       <r>   50.8444    0.0000 </r>
       <r>   50.9785    0.0000 </r>
      </set>
      <set comment="kpoint 21">
       <r>    3.4982    1.0000 </r>
       <r>    5.1379    1.0000 </r>
       <r>    5.3604    1.0000 </r>
       <r>    9.5912   -0.0000 </r>
       <r>   10.1052   -0.0000 </r>
       <r>   10.9928   -0.0000 </r>
       <r>   11.9582    0.0000 </r>
       <r>   12.3575    0.0000 </r>
       <r>   12.6143    0.0000 </r>
       <r>   25.0552    0.0000 </r>
       <r>   25.5074    0.0000 </r>
       <r>   27.4855    0.0000 </r>
       <r>   27.6973    0.0000 </r>
       <r>   28.8619    0.0000 </r>
       <r>   28.9221    0.0000 </r>
       <r>   29.4056    0.0000 </r>
       <r>   29.4828    0.0000 </r>
       <r>   31.0496    0.0000 </r>
       <r>   32.6096    0.0000 </r>
       <r>   32.9992    0.0000 </r>
       <r>   34.2825    0.0000 </r>
       <r>   37.2157    0.0000 </r>
       <r>   37.2375    0.0000 </r>
       <r>   38.4419    0.0000 </r>
       <r>   45.2314    0.0000 </r>
       <r>   45.9190    0.0000 </r>
       <r>   47.5058    0.0000 </r>
       <r>   48.1676    0.0000 </r>
       <r>   48.9595    0.0000 </r>
       <r>   50.0564    0.0000 </r>
       <r>   50.8968    0.0000 </r>
       <r>   51.2657    0.0000 </r>
      </set>
      <set comment="kpoint 22">
       <r>   -3.0150    1.0000 </r>
       <r>    1.7641    1.0000 </r>
       <r>    5.4927    1.0000 </r>
       <r>   18.3582    0.0000 </r>
       <r>   18.5292    0.0000 </r>
       <r>   18.5293    0.0000 </r>
       <r>   18.9821    0.0000 </r>
       <r>   18.9821    0.0000 </r>
       <r>   21.9604    0.0000 </r>
       <r>   22.5084    0.0000 </r>
       <r>   22.5084    0.0000 </r>
       <r>   22.7202    0.0000 </r>
       <r>   23.0542    0.0000 </r>
       <r>   23.0542    0.0000 </r>
       <r>   24.3877    0.0000 </r>
       <r>   25.6452    0.0000 </r>
       <r>   25.6452    0.0000 </r>
       <r>   27.6495    0.0000 </r>
       <r>   27.6495    0.0000 </r>
       <r>   27.9704    0.0000 </r>
       <r>   28.4136    0.0000 </r>
       <r>   31.6884    0.0000 </r>
       <r>   36.6282    0.0000 </r>
       <r>   38.4406    0.0000 </r>
       <r>   38.4406    0.0000 </r>
       <r>   41.9857    0.0000 </r>
       <r>   41.9857    0.0000 </r>
       <r>   46.3008    0.0000 </r>
       <r>   47.1566    0.0000 </r>
       <r>   47.2174    0.0000 </r>
       <r>   47.2174    0.0000 </r>
       <r>   48.9027    0.0000 </r>
      </set>
      <set comment="kpoint 23">
       <r>   -2.8730    1.0000 </r>
       <r>    1.9012    1.0000 </r>
       <r>    5.6258    1.0000 </r>
       <r>   16.2207    0.0000 </r>
       <r>   17.2713    0.0000 </r>
       <r>   18.1632    0.0000 </r>
       <r>   19.2973    0.0000 </r>
       <r>   20.4606    0.0000 </r>
       <r>   20.5889    0.0000 </r>
       <r>   21.4149    0.0000 </r>
       <r>   22.5564    0.0000 </r>
       <r>   23.2004    0.0000 </r>
       <r>   23.9891    0.0000 </r>
       <r>   24.0320    0.0000 </r>
       <r>   24.4557    0.0000 </r>
       <r>   25.2726    0.0000 </r>
       <r>   25.6622    0.0000 </r>
       <r>   27.0266    0.0000 </r>
       <r>   28.5866    0.0000 </r>
       <r>   29.1825    0.0000 </r>
       <r>   29.6112    0.0000 </r>
       <r>   32.9196    0.0000 </r>
       <r>   36.9519    0.0000 </r>
       <r>   37.6436    0.0000 </r>
       <r>   38.0256    0.0000 </r>
       <r>   41.7720    0.0000 </r>
       <r>   42.6711    0.0000 </r>
       <r>   45.9145    0.0000 </r>
       <r>   46.5862    0.0000 </r>
       <r>   46.8550    0.0000 </r>
       <r>   48.2103    0.0000 </r>
       <r>   48.7481    0.0000 </r>
      </set>
      <set comment="kpoint 24">
       <r>   -2.4478    1.0000 </r>
       <r>    2.3116    1.0000 </r>
       <r>    6.0226    1.0000 </r>
       <r>   13.4023    0.0000 </r>
       <r>   16.0569    0.0000 </r>
       <r>   17.1531    0.0000 </r>
       <r>   17.9346    0.0000 </r>
       <r>   19.5680    0.0000 </r>
       <r>   20.1905    0.0000 </r>
       <r>   20.9735    0.0000 </r>
       <r>   22.4755    0.0000 </r>
       <r>   22.8669    0.0000 </r>
       <r>   23.4800    0.0000 </r>
       <r>   24.6459    0.0000 </r>
       <r>   26.1726    0.0000 </r>
       <r>   26.3232    0.0000 </r>
       <r>   26.5566    0.0000 </r>
       <r>   28.1445    0.0000 </r>
       <r>   30.2095    0.0000 </r>
       <r>   31.1247    0.0000 </r>
       <r>   31.9054    0.0000 </r>
       <r>   34.6461    0.0000 </r>
       <r>   37.0043    0.0000 </r>
       <r>   37.4002    0.0000 </r>
       <r>   37.9063    0.0000 </r>
       <r>   41.3358    0.0000 </r>
       <r>   43.8101    0.0000 </r>
       <r>   43.9474    0.0000 </r>
       <r>   45.8964    0.0000 </r>
       <r>   47.8325    0.0000 </r>
       <r>   48.1846    0.0000 </r>
       <r>   49.8160    0.0000 </r>
      </set>
      <set comment="kpoint 25">
       <r>   -1.7421    1.0000 </r>
       <r>    2.9914    1.0000 </r>
       <r>    6.6702    1.0000 </r>
       <r>   10.7170   -0.0000 </r>
       <r>   14.9641    0.0000 </r>
       <r>   15.0838    0.0000 </r>
       <r>   16.6238    0.0000 </r>
       <r>   18.4817    0.0000 </r>
       <r>   19.2486    0.0000 </r>
       <r>   20.2273    0.0000 </r>
       <r>   21.8817    0.0000 </r>
       <r>   22.5882    0.0000 </r>
       <r>   24.6664    0.0000 </r>
       <r>   25.1225    0.0000 </r>
       <r>   26.3379    0.0000 </r>
       <r>   28.0750    0.0000 </r>
       <r>   28.5331    0.0000 </r>
       <r>   31.5691    0.0000 </r>
       <r>   31.7306    0.0000 </r>
       <r>   32.2210    0.0000 </r>
       <r>   33.3597    0.0000 </r>
       <r>   35.9813    0.0000 </r>
       <r>   37.2999    0.0000 </r>
       <r>   38.4780    0.0000 </r>
       <r>   39.3627    0.0000 </r>
       <r>   41.5155    0.0000 </r>
       <r>   42.5135    0.0000 </r>
       <r>   44.1057    0.0000 </r>
       <r>   46.5944    0.0000 </r>
       <r>   46.8890    0.0000 </r>
       <r>   49.1699    0.0000 </r>
       <r>   49.3183    0.0000 </r>
      </set>
      <set comment="kpoint 26">
       <r>   -0.7602    1.0000 </r>
       <r>    3.9309    1.0000 </r>
       <r>    7.4047    1.0004 </r>
       <r>    8.4102   -0.0028 </r>
       <r>   12.6124    0.0000 </r>
       <r>   14.3549    0.0000 </r>
       <r>   15.4604    0.0000 </r>
       <r>   16.6705    0.0000 </r>
       <r>   18.5303    0.0000 </r>
       <r>   20.4304    0.0000 </r>
       <r>   21.5197    0.0000 </r>
       <r>   21.8812    0.0000 </r>
       <r>   24.6616    0.0000 </r>
       <r>   27.0732    0.0000 </r>
       <r>   27.3974    0.0000 </r>
       <r>   29.1938    0.0000 </r>
       <r>   30.6582    0.0000 </r>
       <r>   31.2937    0.0000 </r>
       <r>   32.6115    0.0000 </r>
       <r>   35.0982    0.0000 </r>
       <r>   35.6691    0.0000 </r>
       <r>   37.6267    0.0000 </r>
       <r>   38.2838    0.0000 </r>
       <r>   38.6971    0.0000 </r>
       <r>   41.0732    0.0000 </r>
       <r>   42.5877    0.0000 </r>
       <r>   43.6259    0.0000 </r>
       <r>   44.8137    0.0000 </r>
       <r>   45.0116    0.0000 </r>
       <r>   45.7578    0.0000 </r>
       <r>   47.5308    0.0000 </r>
       <r>   49.0434    0.0000 </r>
      </set>
      <set comment="kpoint 27">
       <r>    0.4914    1.0000 </r>
       <r>    5.0211    1.0000 </r>
       <r>    5.9614    1.0000 </r>
       <r>    8.8253   -0.0000 </r>
       <r>   10.4857   -0.0000 </r>
       <r>   13.7806    0.0000 </r>
       <r>   13.8696    0.0000 </r>
       <r>   15.7300    0.0000 </r>
       <r>   18.0479    0.0000 </r>
       <r>   20.1904    0.0000 </r>
       <r>   21.4028    0.0000 </r>
       <r>   21.9840    0.0000 </r>
       <r>   24.4636    0.0000 </r>
       <r>   27.4552    0.0000 </r>
       <r>   29.3108    0.0000 </r>
       <r>   29.6124    0.0000 </r>
       <r>   31.9509    0.0000 </r>
       <r>   32.4214    0.0000 </r>
       <r>   33.1131    0.0000 </r>
       <r>   35.9943    0.0000 </r>
       <r>   37.6930    0.0000 </r>
       <r>   38.5392    0.0000 </r>
       <r>   40.0357    0.0000 </r>
       <r>   41.5234    0.0000 </r>
       <r>   42.0114    0.0000 </r>
       <r>   42.0709    0.0000 </r>
       <r>   43.4386    0.0000 </r>
       <r>   44.3751    0.0000 </r>
       <r>   44.8084    0.0000 </r>
       <r>   45.6651    0.0000 </r>
       <r>   47.1454    0.0000 </r>
       <r>   48.1116    0.0000 </r>
      </set>
      <set comment="kpoint 28">
       <r>    2.0009    1.0000 </r>
       <r>    3.7645    1.0000 </r>
       <r>    6.6821    1.0000 </r>
       <r>    8.3568   -0.0074 </r>
       <r>   10.3905   -0.0000 </r>
       <r>   11.9875    0.0000 </r>
       <r>   13.6271    0.0000 </r>
       <r>   15.3763    0.0000 </r>
       <r>   17.8058    0.0000 </r>
       <r>   19.9815    0.0000 </r>
       <r>   21.1626    0.0000 </r>
       <r>   22.4178    0.0000 </r>
       <r>   24.8156    0.0000 </r>
       <r>   26.2421    0.0000 </r>
       <r>   30.3627    0.0000 </r>
       <r>   31.8761    0.0000 </r>
       <r>   31.9087    0.0000 </r>
       <r>   32.7385    0.0000 </r>
       <r>   33.9252    0.0000 </r>
       <r>   35.6624    0.0000 </r>
       <r>   39.0337    0.0000 </r>
       <r>   39.7325    0.0000 </r>
       <r>   40.9475    0.0000 </r>
       <r>   41.4144    0.0000 </r>
       <r>   42.1098    0.0000 </r>
       <r>   42.7073    0.0000 </r>
       <r>   42.7940    0.0000 </r>
       <r>   44.5378    0.0000 </r>
       <r>   45.2220    0.0000 </r>
       <r>   46.2748    0.0000 </r>
       <r>   47.8453    0.0000 </r>
       <r>   48.0397    0.0000 </r>
      </set>
      <set comment="kpoint 29">
       <r>   -2.5894    1.0000 </r>
       <r>    2.1750    1.0000 </r>
       <r>    5.8908    1.0000 </r>
       <r>   14.8735    0.0000 </r>
       <r>   14.8938    0.0000 </r>
       <r>   18.7020    0.0000 </r>
       <r>   19.0187    0.0000 </r>
       <r>   19.2251    0.0000 </r>
       <r>   20.4033    0.0000 </r>
       <r>   20.4040    0.0000 </r>
       <r>   22.3826    0.0000 </r>
       <r>   22.7789    0.0000 </r>
       <r>   24.4512    0.0000 </r>
       <r>   24.4947    0.0000 </r>
       <r>   25.3693    0.0000 </r>
       <r>   25.4097    0.0000 </r>
       <r>   27.5274    0.0000 </r>
       <r>   27.6648    0.0000 </r>
       <r>   28.4182    0.0000 </r>
       <r>   31.0556    0.0000 </r>
       <r>   31.3249    0.0000 </r>
       <r>   34.4861    0.0000 </r>
       <r>   37.0022    0.0000 </r>
       <r>   37.0329    0.0000 </r>
       <r>   37.8076    0.0000 </r>
       <r>   41.9459    0.0000 </r>
       <r>   43.1091    0.0000 </r>
       <r>   44.8382    0.0000 </r>
       <r>   45.2089    0.0000 </r>
       <r>   47.9224    0.0000 </r>
       <r>   49.1504    0.0000 </r>
       <r>   49.2230    0.0000 </r>
      </set>
      <set comment="kpoint 30">
       <r>   -2.0240    1.0000 </r>
       <r>    2.7202    1.0000 </r>
       <r>    6.4147    1.0000 </r>
       <r>   12.1247    0.0000 </r>
       <r>   13.7368    0.0000 </r>
       <r>   16.4991    0.0000 </r>
       <r>   18.0284    0.0000 </r>
       <r>   18.7487    0.0000 </r>
       <r>   19.4970    0.0000 </r>
       <r>   20.7744    0.0000 </r>
       <r>   21.6202    0.0000 </r>
       <r>   22.3396    0.0000 </r>
       <r>   23.6511    0.0000 </r>
       <r>   25.8583    0.0000 </r>
       <r>   26.8806    0.0000 </r>
       <r>   27.2194    0.0000 </r>
       <r>   27.8976    0.0000 </r>
       <r>   29.8000    0.0000 </r>
       <r>   30.3907    0.0000 </r>
       <r>   32.7386    0.0000 </r>
       <r>   32.9129    0.0000 </r>
       <r>   35.3391    0.0000 </r>
       <r>   36.9148    0.0000 </r>
       <r>   38.3699    0.0000 </r>
       <r>   38.6920    0.0000 </r>
       <r>   41.9372    0.0000 </r>
       <r>   42.9386    0.0000 </r>
       <r>   43.6435    0.0000 </r>
       <r>   45.1424    0.0000 </r>
       <r>   48.1610    0.0000 </r>
       <r>   49.1987    0.0000 </r>
       <r>   49.5621    0.0000 </r>
      </set>
      <set comment="kpoint 31">
       <r>   -1.1802    1.0000 </r>
       <r>    3.5310    1.0000 </r>
[...]
        <r>  0.0310  0.0250  0.0191  0.0063  0.0000  0.0000  0.0000  0.0000  0.0000 </r>
       </set>
       <set comment="band 12">
        <r>  0.0094  0.0386  0.0244  0.0051  0.0000  0.0000  0.0000  0.0000  0.0000 </r>
        <r>  0.0094  0.0386  0.0244  0.0051  0.0000  0.0000  0.0000  0.0000  0.0000 </r>
       </set>
       <set comment="band 13">
        <r>  0.0301  0.0324  0.0004  0.0418  0.0000  0.0000  0.0000  0.0000  0.0000 </r>
        <r>  0.0301  0.0324  0.0004  0.0418  0.0000  0.0000  0.0000  0.0000  0.0000 </r>
       </set>
       <set comment="band 14">
        <r>  0.0181  0.0429  0.0050  0.0444  0.0000  0.0000  0.0000  0.0000  0.0000 </r>
        <r>  0.0181  0.0429  0.0050  0.0444  0.0000  0.0000  0.0000  0.0000  0.0000 </r>
       </set>
       <set comment="band 15">
        <r>  0.0231  0.0001  0.0003  0.0476  0.0000  0.0000  0.0000  0.0000  0.0000 </r>
        <r>  0.0231  0.0001  0.0003  0.0476  0.0000  0.0000  0.0000  0.0000  0.0000 </r>
       </set>
       <set comment="band 16">
        <r>  0.0160  0.0000  0.0036  0.0511  0.0000  0.0000  0.0000  0.0000  0.0000 </r>
        <r>  0.0160  0.0000  0.0036  0.0511  0.0000  0.0000  0.0000  0.0000  0.0000 </r>
       </set>
       <set comment="band 17">
        <r>  0.0011  0.0252  0.0056  0.0022  0.0000  0.0000  0.0000  0.0000  0.0000 </r>
        <r>  0.0011  0.0252  0.0056  0.0022  0.0000  0.0000  0.0000  0.0000  0.0000 </r>
       </set>
       <set comment="band 18">
        <r>  0.0014  0.0169  0.0002  0.0023  0.0000  0.0000  0.0000  0.0000  0.0000 </r>
        <r>  0.0014  0.0169  0.0002  0.0023  0.0000  0.0000  0.0000  0.0000  0.0000 </r>
       </set>
       <set comment="band 19">
        <r>  0.0080  0.0017  0.0058  0.0101  0.0000  0.0000  0.0000  0.0000  0.0000 </r>
        <r>  0.0080  0.0017  0.0058  0.0101  0.0000  0.0000  0.0000  0.0000  0.0000 </r>
       </set>
       <set comment="band 20">
        <r>  0.0024  0.0014  0.0204  0.0048  0.0000  0.0000  0.0000  0.0000  0.0000 </r>
        <r>  0.0024  0.0014  0.0204  0.0048  0.0000  0.0000  0.0000  0.0000  0.0000 </r>
       </set>
       <set comment="band 21">
        <r>  0.0001  0.0009  0.0028  0.0039  0.0000  0.0000  0.0000  0.0000  0.0000 </r>
        <r>  0.0001  0.0009  0.0028  0.0039  0.0000  0.0000  0.0000  0.0000  0.0000 </r>
       </set>
       <set comment="band 22">
        <r>  0.0272  0.0179  0.0171  0.0019  0.0000  0.0000  0.0000  0.0000  0.0000 </r>
        <r>  0.0272  0.0179  0.0171  0.0019  0.0000  0.0000  0.0000  0.0000  0.0000 </r>
       </set>
       <set comment="band 23">
        <r>  0.0114  0.0364  0.0040  0.0066  0.0000  0.0000  0.0000  0.0000  0.0000 </r>
        <r>  0.0114  0.0364  0.0040  0.0066  0.0000  0.0000  0.0000  0.0000  0.0000 </r>
       </set>
       <set comment="band 24">
        <r>  0.0001  0.0083  0.0160  0.0008  0.0000  0.0000  0.0000  0.0000  0.0000 </r>
        <r>  0.0001  0.0083  0.0160  0.0008  0.0000  0.0000  0.0000  0.0000  0.0000 </r>
       </set>
       <set comment="band 25">
        <r>  0.0199  0.0062  0.0206  0.0042  0.0000  0.0000  0.0000  0.0000  0.0000 </r>
        <r>  0.0199  0.0062  0.0206  0.0042  0.0000  0.0000  0.0000  0.0000  0.0000 </r>
       </set>
       <set comment="band 26">
        <r>  0.0161  0.0054  0.0191  0.0238  0.0000  0.0000  0.0000  0.0000  0.0000 </r>
        <r>  0.0161  0.0054  0.0191  0.0238  0.0000  0.0000  0.0000  0.0000  0.0000 </r>
       </set>
       <set comment="band 27">
        <r>  0.0359  0.0057  0.0128  0.0247  0.0000  0.0000  0.0000  0.0000  0.0000 </r>
        <r>  0.0359  0.0057  0.0128  0.0247  0.0000  0.0000  0.0000  0.0000  0.0000 </r>
       </set>
       <set comment="band 28">
        <r>  0.0286  0.0037  0.0179  0.0038  0.0000  0.0000  0.0000  0.0000  0.0000 </r>
        <r>  0.0286  0.0037  0.0179  0.0038  0.0000  0.0000  0.0000  0.0000  0.0000 </r>
       </set>
       <set comment="band 29">
        <r>  0.0379  0.0455  0.0346  0.0131  0.0000  0.0000  0.0000  0.0000  0.0000 </r>
        <r>  0.0379  0.0455  0.0346  0.0131  0.0000  0.0000  0.0000  0.0000  0.0000 </r>
       </set>
       <set comment="band 30">
        <r>  0.0153  0.0094  0.0341  0.0078  0.0000  0.0000  0.0000  0.0000  0.0000 </r>
        <r>  0.0153  0.0094  0.0341  0.0078  0.0000  0.0000  0.0000  0.0000  0.0000 </r>
       </set>
       <set comment="band 31">
        <r>  0.0119  0.0174  0.0248  0.0005  0.0000  0.0000  0.0000  0.0000  0.0000 </r>
        <r>  0.0119  0.0174  0.0248  0.0005  0.0000  0.0000  0.0000  0.0000  0.0000 </r>
       </set>
       <set comment="band 32">
        <r>  0.0266  0.0432  0.0224  0.0232  0.0000  0.0000  0.0000  0.0000  0.0000 </r>
        <r>  0.0266  0.0432  0.0224  0.0232  0.0000  0.0000  0.0000  0.0000  0.0000 </r>
       </set>
      </set>
      <set comment="kpoint 83">
       <set comment="band 1">
        <r>  0.0553  0.0190  0.0209  0.0358  0.0000  0.0000  0.0000  0.0000  0.0000 </r>
        <r>  0.0553  0.0190  0.0209  0.0358  0.0000  0.0000  0.0000  0.0000  0.0000 </r>
       </set>
       <set comment="band 2">
        <r>  0.0052  0.0215  0.0149  0.0645  0.0000  0.0000  0.0000  0.0000  0.0000 </r>
        <r>  0.0052  0.0215  0.0149  0.0645  0.0000  0.0000  0.0000  0.0000  0.0000 </r>
       </set>
       <set comment="band 3">
        <r>  0.1002  0.0183  0.0172  0.0065  0.0000  0.0000  0.0000  0.0000  0.0000 </r>
        <r>  0.1002  0.0183  0.0172  0.0065  0.0000  0.0000  0.0000  0.0000  0.0000 </r>
       </set>
       <set comment="band 4">
        <r>  0.0688  0.0176  0.0022  0.0338  0.0000  0.0000  0.0000  0.0000  0.0000 </r>
        <r>  0.0688  0.0176  0.0022  0.0338  0.0000  0.0000  0.0000  0.0000  0.0000 </r>
       </set>
       <set comment="band 5">
        <r>  0.0746  0.0452  0.0020  0.0158  0.0000  0.0000  0.0000  0.0000  0.0000 </r>
        <r>  0.0746  0.0452  0.0020  0.0158  0.0000  0.0000  0.0000  0.0000  0.0000 </r>
       </set>
       <set comment="band 6">
        <r>  0.0587  0.0463  0.0103  0.0162  0.0000  0.0000  0.0000  0.0000  0.0000 </r>
        <r>  0.0587  0.0463  0.0103  0.0162  0.0000  0.0000  0.0000  0.0000  0.0000 </r>
       </set>
       <set comment="band 7">
        <r>  0.0390  0.0084  0.1150  0.0155  0.0000  0.0000  0.0000  0.0000  0.0000 </r>
        <r>  0.0390  0.0084  0.1150  0.0155  0.0000  0.0000  0.0000  0.0000  0.0000 </r>
       </set>
       <set comment="band 8">
        <r>  0.0110  0.0102  0.0618  0.0284  0.0000  0.0000  0.0000  0.0000  0.0000 </r>
        <r>  0.0110  0.0102  0.0618  0.0284  0.0000  0.0000  0.0000  0.0000  0.0000 </r>
       </set>
       <set comment="band 9">
        <r>  0.0123  0.0140  0.1014  0.0067  0.0000  0.0000  0.0000  0.0000  0.0000 </r>
        <r>  0.0123  0.0140  0.1014  0.0067  0.0000  0.0000  0.0000  0.0000  0.0000 </r>
       </set>
       <set comment="band 10">
        <r>  0.0178  0.0057  0.0208  0.0149  0.0000  0.0000  0.0000  0.0000  0.0000 </r>
        <r>  0.0178  0.0057  0.0208  0.0149  0.0000  0.0000  0.0000  0.0000  0.0000 </r>
       </set>
       <set comment="band 11">
        <r>  0.0486  0.0192  0.0010  0.0074  0.0000  0.0000  0.0000  0.0000  0.0000 </r>
        <r>  0.0486  0.0192  0.0010  0.0074  0.0000  0.0000  0.0000  0.0000  0.0000 </r>
       </set>
       <set comment="band 12">
        <r>  0.0094  0.0379  0.0287  0.0127  0.0000  0.0000  0.0000  0.0000  0.0000 </r>
        <r>  0.0094  0.0379  0.0287  0.0127  0.0000  0.0000  0.0000  0.0000  0.0000 </r>
       </set>
       <set comment="band 13">
        <r>  0.0365  0.0443  0.0001  0.0151  0.0000  0.0000  0.0000  0.0000  0.0000 </r>
        <r>  0.0365  0.0443  0.0001  0.0151  0.0000  0.0000  0.0000  0.0000  0.0000 </r>
       </set>
       <set comment="band 14">
        <r>  0.0231  0.0567  0.0054  0.0189  0.0000  0.0000  0.0000  0.0000  0.0000 </r>
        <r>  0.0231  0.0567  0.0054  0.0189  0.0000  0.0000  0.0000  0.0000  0.0000 </r>
       </set>
       <set comment="band 15">
        <r>  0.0010  0.0171  0.0005  0.0501  0.0000  0.0000  0.0000  0.0000  0.0000 </r>
        <r>  0.0010  0.0171  0.0005  0.0501  0.0000  0.0000  0.0000  0.0000  0.0000 </r>
       </set>
       <set comment="band 16">
        <r>  0.0011  0.0172  0.0001  0.0470  0.0000  0.0000  0.0000  0.0000  0.0000 </r>
        <r>  0.0011  0.0172  0.0001  0.0470  0.0000  0.0000  0.0000  0.0000  0.0000 </r>
       </set>
       <set comment="band 17">
        <r>  0.0101  0.0230  0.0052  0.0103  0.0000  0.0000  0.0000  0.0000  0.0000 </r>
        <r>  0.0101  0.0230  0.0052  0.0103  0.0000  0.0000  0.0000  0.0000  0.0000 </r>
       </set>
       <set comment="band 18">
        <r>  0.0123  0.0182  0.0005  0.0064  0.0000  0.0000  0.0000  0.0000  0.0000 </r>
        <r>  0.0123  0.0182  0.0005  0.0064  0.0000  0.0000  0.0000  0.0000  0.0000 </r>
       </set>
       <set comment="band 19">
        <r>  0.0123  0.0043  0.0059  0.0016  0.0000  0.0000  0.0000  0.0000  0.0000 </r>
        <r>  0.0123  0.0043  0.0059  0.0016  0.0000  0.0000  0.0000  0.0000  0.0000 </r>
       </set>
       <set comment="band 20">
        <r>  0.0053  0.0025  0.0173  0.0009  0.0000  0.0000  0.0000  0.0000  0.0000 </r>
        <r>  0.0053  0.0025  0.0173  0.0009  0.0000  0.0000  0.0000  0.0000  0.0000 </r>
       </set>
       <set comment="band 21">
        <r>  0.0239  0.0036  0.0186  0.0020  0.0000  0.0000  0.0000  0.0000  0.0000 </r>
        <r>  0.0239  0.0036  0.0186  0.0020  0.0000  0.0000  0.0000  0.0000  0.0000 </r>
       </set>
       <set comment="band 22">
        <r>  0.0204  0.0043  0.0000  0.0035  0.0000  0.0000  0.0000  0.0000  0.0000 </r>
        <r>  0.0204  0.0043  0.0000  0.0035  0.0000  0.0000  0.0000  0.0000  0.0000 </r>
       </set>
       <set comment="band 23">
        <r>  0.0039  0.0002  0.0032  0.0005  0.0000  0.0000  0.0000  0.0000  0.0000 </r>
        <r>  0.0039  0.0002  0.0032  0.0005  0.0000  0.0000  0.0000  0.0000  0.0000 </r>
       </set>
       <set comment="band 24">
        <r>  0.0069  0.0088  0.0227  0.0052  0.0000  0.0000  0.0000  0.0000  0.0000 </r>
        <r>  0.0069  0.0088  0.0227  0.0052  0.0000  0.0000  0.0000  0.0000  0.0000 </r>
       </set>
       <set comment="band 25">
        <r>  0.0124  0.0012  0.0006  0.0007  0.0000  0.0000  0.0000  0.0000  0.0000 </r>
        <r>  0.0124  0.0012  0.0006  0.0007  0.0000  0.0000  0.0000  0.0000  0.0000 </r>
       </set>
       <set comment="band 26">
        <r>  0.0111  0.0124  0.0051  0.0064  0.0000  0.0000  0.0000  0.0000  0.0000 </r>
        <r>  0.0111  0.0124  0.0051  0.0064  0.0000  0.0000  0.0000  0.0000  0.0000 </r>
       </set>
       <set comment="band 27">
        <r>  0.0063  0.0101  0.0458  0.0087  0.0000  0.0000  0.0000  0.0000  0.0000 </r>
        <r>  0.0063  0.0101  0.0458  0.0087  0.0000  0.0000  0.0000  0.0000  0.0000 </r>
       </set>
       <set comment="band 28">
        <r>  0.0013  0.0146  0.0827  0.0326  0.0000  0.0000  0.0000  0.0000  0.0000 </r>
        <r>  0.0013  0.0146  0.0827  0.0326  0.0000  0.0000  0.0000  0.0000  0.0000 </r>
       </set>
       <set comment="band 29">
        <r>  0.0104  0.0210  0.0531  0.0539  0.0000  0.0000  0.0000  0.0000  0.0000 </r>
        <r>  0.0104  0.0210  0.0531  0.0539  0.0000  0.0000  0.0000  0.0000  0.0000 </r>
       </set>
       <set comment="band 30">
        <r>  0.0257  0.0105  0.0018  0.0255  0.0000  0.0000  0.0000  0.0000  0.0000 </r>
        <r>  0.0257  0.0105  0.0018  0.0255  0.0000  0.0000  0.0000  0.0000  0.0000 </r>
       </set>
       <set comment="band 31">
        <r>  0.0005  0.0331  0.0019  0.0710  0.0000  0.0000  0.0000  0.0000  0.0000 </r>
        <r>  0.0005  0.0331  0.0019  0.0710  0.0000  0.0000  0.0000  0.0000  0.0000 </r>
       </set>
       <set comment="band 32">
        <r>  0.0119  0.0486  0.0040  0.0333  0.0000  0.0000  0.0000  0.0000  0.0000 </r>
        <r>  0.0119  0.0486  0.0040  0.0333  0.0000  0.0000  0.0000  0.0000  0.0000 </r>
       </set>
      </set>
      <set comment="kpoint 84">
       <set comment="band 1">
        <r>  0.0486  0.0444  0.0151  0.0159  0.0000  0.0000  0.0000  0.0000  0.0000 </r>
        <r>  0.0486  0.0444  0.0151  0.0159  0.0000  0.0000  0.0000  0.0000  0.0000 </r>
       </set>
       <set comment="band 2">
        <r>  0.0106  0.0514  0.0285  0.0222  0.0000  0.0000  0.0000  0.0000  0.0000 </r>
        <r>  0.0106  0.0514  0.0285  0.0222  0.0000  0.0000  0.0000  0.0000  0.0000 </r>
       </set>
       <set comment="band 3">
        <r>  0.0014  0.0247  0.0082  0.0608  0.0000  0.0000  0.0000  0.0000  0.0000 </r>
        <r>  0.0014  0.0247  0.0082  0.0608  0.0000  0.0000  0.0000  0.0000  0.0000 </r>
       </set>
       <set comment="band 4">
        <r>  0.1001  0.0100  0.0026  0.0298  0.0000  0.0000  0.0000  0.0000  0.0000 </r>
        <r>  0.1001  0.0100  0.0026  0.0298  0.0000  0.0000  0.0000  0.0000  0.0000 </r>
       </set>
       <set comment="band 5">
        <r>  0.0725  0.0242  0.0032  0.0310  0.0000  0.0000  0.0000  0.0000  0.0000 </r>
        <r>  0.0725  0.0242  0.0032  0.0310  0.0000  0.0000  0.0000  0.0000  0.0000 </r>
       </set>
       <set comment="band 6">
        <r>  0.1350  0.0163  0.0104  0.0067  0.0000  0.0000  0.0000  0.0000  0.0000 </r>
        <r>  0.1350  0.0163  0.0104  0.0067  0.0000  0.0000  0.0000  0.0000  0.0000 </r>
       </set>
       <set comment="band 7">
        <r>  0.0307  0.0193  0.0915  0.0085  0.0000  0.0000  0.0000  0.0000  0.0000 </r>
        <r>  0.0307  0.0193  0.0915  0.0085  0.0000  0.0000  0.0000  0.0000  0.0000 </r>
       </set>
       <set comment="band 8">
        <r>  0.0095  0.0262  0.1461  0.0201  0.0000  0.0000  0.0000  0.0000  0.0000 </r>
        <r>  0.0095  0.0262  0.1461  0.0201  0.0000  0.0000  0.0000  0.0000  0.0000 </r>
       </set>
       <set comment="band 9">
        <r>  0.0034  0.0098  0.0289  0.0233  0.0000  0.0000  0.0000  0.0000  0.0000 </r>
        <r>  0.0034  0.0098  0.0289  0.0233  0.0000  0.0000  0.0000  0.0000  0.0000 </r>
       </set>
       <set comment="band 10">
        <r>  0.0523  0.0027  0.0089  0.0016  0.0000  0.0000  0.0000  0.0000  0.0000 </r>
        <r>  0.0523  0.0027  0.0089  0.0016  0.0000  0.0000  0.0000  0.0000  0.0000 </r>
       </set>
       <set comment="band 11">
        <r>  0.0446  0.0122  0.0448  0.0072  0.0000  0.0000  0.0000  0.0000  0.0000 </r>
        <r>  0.0446  0.0122  0.0448  0.0072  0.0000  0.0000  0.0000  0.0000  0.0000 </r>
       </set>
       <set comment="band 12">
        <r>  0.0161  0.0080  0.0105  0.0121  0.0000  0.0000  0.0000  0.0000  0.0000 </r>
        <r>  0.0161  0.0080  0.0105  0.0121  0.0000  0.0000  0.0000  0.0000  0.0000 </r>
       </set>
       <set comment="band 13">
        <r>  0.0015  0.0283  0.0007  0.0765  0.0000  0.0000  0.0000  0.0000  0.0000 </r>
        <r>  0.0015  0.0283  0.0007  0.0765  0.0000  0.0000  0.0000  0.0000  0.0000 </r>
       </set>
       <set comment="band 14">
        <r>  0.0032  0.0256  0.0014  0.0708  0.0000  0.0000  0.0000  0.0000  0.0000 </r>
        <r>  0.0032  0.0256  0.0014  0.0708  0.0000  0.0000  0.0000  0.0000  0.0000 </r>
       </set>
       <set comment="band 15">
        <r>  0.0182  0.0371  0.0000  0.0181  0.0000  0.0000  0.0000  0.0000  0.0000 </r>
        <r>  0.0182  0.0371  0.0000  0.0181  0.0000  0.0000  0.0000  0.0000  0.0000 </r>
       </set>
       <set comment="band 16">
        <r>  0.0113  0.0422  0.0044  0.0175  0.0000  0.0000  0.0000  0.0000  0.0000 </r>
        <r>  0.0113  0.0422  0.0044  0.0175  0.0000  0.0000  0.0000  0.0000  0.0000 </r>
       </set>
       <set comment="band 17">
        <r>  0.0189  0.0165  0.0018  0.0055  0.0000  0.0000  0.0000  0.0000  0.0000 </r>
        <r>  0.0189  0.0165  0.0018  0.0055  0.0000  0.0000  0.0000  0.0000  0.0000 </r>
       </set>
       <set comment="band 18">
        <r>  0.0141  0.0183  0.0018  0.0061  0.0000  0.0000  0.0000  0.0000  0.0000 </r>
        <r>  0.0141  0.0183  0.0018  0.0061  0.0000  0.0000  0.0000  0.0000  0.0000 </r>
       </set>
       <set comment="band 19">
        <r>  0.0018  0.0029  0.0019  0.0067  0.0000  0.0000  0.0000  0.0000  0.0000 </r>
        <r>  0.0018  0.0029  0.0019  0.0067  0.0000  0.0000  0.0000  0.0000  0.0000 </r>
       </set>
       <set comment="band 20">
        <r>  0.0000  0.0005  0.0065  0.0015  0.0000  0.0000  0.0000  0.0000  0.0000 </r>
        <r>  0.0000  0.0005  0.0065  0.0015  0.0000  0.0000  0.0000  0.0000  0.0000 </r>
       </set>
       <set comment="band 21">
        <r>  0.0125  0.0009  0.0114  0.0026  0.0000  0.0000  0.0000  0.0000  0.0000 </r>
        <r>  0.0125  0.0009  0.0114  0.0026  0.0000  0.0000  0.0000  0.0000  0.0000 </r>
       </set>
       <set comment="band 22">
        <r>  0.0284  0.0002  0.0123  0.0002  0.0000  0.0000  0.0000  0.0000  0.0000 </r>
        <r>  0.0284  0.0002  0.0123  0.0002  0.0000  0.0000  0.0000  0.0000  0.0000 </r>
       </set>
       <set comment="band 23">
        <r>  0.0253  0.0059  0.0002  0.0021  0.0000  0.0000  0.0000  0.0000  0.0000 </r>
        <r>  0.0253  0.0059  0.0002  0.0021  0.0000  0.0000  0.0000  0.0000  0.0000 </r>
       </set>
       <set comment="band 24">
        <r>  0.0036  0.0022  0.0404  0.0032  0.0000  0.0000  0.0000  0.0000  0.0000 </r>
        <r>  0.0036  0.0022  0.0404  0.0032  0.0000  0.0000  0.0000  0.0000  0.0000 </r>
       </set>
       <set comment="band 25">
        <r>  0.0302  0.0003  0.0068  0.0002  0.0000  0.0000  0.0000  0.0000  0.0000 </r>
        <r>  0.0302  0.0003  0.0068  0.0002  0.0000  0.0000  0.0000  0.0000  0.0000 </r>
       </set>
       <set comment="band 26">
        <r>  0.0047  0.0036  0.0125  0.0083  0.0000  0.0000  0.0000  0.0000  0.0000 </r>
        <r>  0.0047  0.0036  0.0125  0.0083  0.0000  0.0000  0.0000  0.0000  0.0000 </r>
       </set>
       <set comment="band 27">
        <r>  0.0208  0.0005  0.0267  0.0003  0.0000  0.0000  0.0000  0.0000  0.0000 </r>
        <r>  0.0208  0.0005  0.0267  0.0003  0.0000  0.0000  0.0000  0.0000  0.0000 </r>
       </set>
       <set comment="band 28">
        <r>  0.0030  0.0042  0.0778  0.0051  0.0000  0.0000  0.0000  0.0000  0.0000 </r>
        <r>  0.0030  0.0042  0.0778  0.0051  0.0000  0.0000  0.0000  0.0000  0.0000 </r>
       </set>
       <set comment="band 29">
        <r>  0.0121  0.0361  0.0670  0.0172  0.0000  0.0000  0.0000  0.0000  0.0000 </r>
        <r>  0.0121  0.0361  0.0670  0.0172  0.0000  0.0000  0.0000  0.0000  0.0000 </r>
       </set>
       <set comment="band 30">
        <r>  0.0131  0.0464  0.0115  0.0166  0.0000  0.0000  0.0000  0.0000  0.0000 </r>
        <r>  0.0131  0.0464  0.0115  0.0166  0.0000  0.0000  0.0000  0.0000  0.0000 </r>
       </set>
       <set comment="band 31">
        <r>  0.0030  0.0601  0.0003  0.0443  0.0000  0.0000  0.0000  0.0000  0.0000 </r>
        <r>  0.0030  0.0601  0.0003  0.0443  0.0000  0.0000  0.0000  0.0000  0.0000 </r>
       </set>
       <set comment="band 32">
        <r>  0.0052  0.0763  0.0002  0.0557  0.0000  0.0000  0.0000  0.0000  0.0000 </r>
        <r>  0.0052  0.0763  0.0002  0.0558  0.0000  0.0000  0.0000  0.0000  0.0000 </r>
       </set>
      </set>
     </set>
    </set>
   </array>
  </projected>
 </calculation>
 <structure name="finalpos" >
  <crystal>
   <varray name="basis" >
    <v>       2.86545205      -0.00000001      -0.00000000 </v>
    <v>      -1.43272654       2.48155482       0.00000000 </v>
    <v>      -0.00000000       0.00000000       4.66320402 </v>
   </varray>
   <i name="volume">     33.15900072 </i>
   <varray name="rec_basis" >
    <v>       0.34898508       0.20148666       0.00000000 </v>
    <v>       0.00000000       0.40297317      -0.00000000 </v>
    <v>       0.00000000      -0.00000000       0.21444483 </v>
   </varray>
  </crystal>
  <varray name="positions" >
   <v>       0.00000000       0.00000000       0.00000000 </v>
   <v>       0.66666700       0.33333300       0.50000000 </v>
  </varray>
 </structure>
</modeling>
