 vasp.6.4.3 19Mar24 (build Oct 16 2024 18:29:25) complex                        
  
 executed on             LinuxIFC date 2025.08.14  11:22:54
 running   32 mpi-ranks, with    1 threads/rank, on    1 nodes
 distrk:  each k-point on    8 cores,    4 groups
 distr:  one band on NCORE=   8 cores,    1 groups


--------------------------------------------------------------------------------------------------------


 INCAR:
   ALGO = Normal
   EDIFF = 1e-06
   ENCUT = 520.0
   GGA = Pe
   IBRION = -1
   ICHARG = 1
   ICORELEVEL = 0
   ISMEAR = 0
   ISPIN = 2
   ISYM = 0
   KPAR = 4
   LASPH = True
   LDAU = True
   LDAUTYPE = 2
   LORBIT = 11
   LREAL = Auto
   LVHAR = True
   MAGMOM = 60*0.6
   NCORE = 16
   NEDOS = 3000
   NSW = 0
   NUPDOWN = 0.0
   PREC = Accurate
   SIGMA = 0.05

 POTCAR:   PAW_PBE Al 04Jan2001                   
 POTCAR:    PAW_PBE Cl 17Jan2003                  
 POTCAR:   PAW_PBE O 08Apr2002                    
 POTCAR:   PAW_PBE Al 04Jan2001                   
   VRHFIN =Al: s2p1                                                                                 
   LEXCH  = PE                                                                                      
   EATOM  =    53.5387 eV,    3.9350 Ry                                                             
                                                                                                    
   TITEL  = PAW_PBE Al 04Jan2001                                                                    
   LULTRA =        F    use ultrasoft PP ?                                                          
   IUNSCR =        1    unscreen: 0-lin 1-nonlin 2-no                                               
   RPACOR =    1.500    partial core radius                                                         
   POMASS =   26.982; ZVAL   =    3.000    mass and valenz                                          
   RCORE  =    1.900    outmost cutoff radius                                                       
   RWIGS  =    2.650; RWIGS  =    1.402    wigner-seitz radius (au A)                               
   ENMAX  =  240.300; ENMIN  =  180.225 eV                                                          
   ICORE  =        2    local potential                                                             
   LCOR   =        T    correct aug charges                                                         
   LPAW   =        T    paw PP                                                                      
   EAUG   =  291.052                                                                                
   DEXC   =    -.041                                                                                
   RMAX   =    2.974    core radius for proj-oper                                                   
   RAUG   =    1.300    factor for augmentation sphere                                              
   RDEP   =    1.966    radius for radial grids                                                     
   QCUT   =   -4.203; QGAM   =    8.405    optimization parameters                                  
                                                                                                    
   Description                                                                                      
     l     E      TYP  RCUT    TYP  RCUT                                                            
     0   .000     23  1.900                                                                         
     0   .000     23  1.900                                                                         
     1   .000     23  1.900                                                                         
     1  1.000     23  1.900                                                                         
     2   .000      7  1.900                                                                         
  local pseudopotential read in
  partial core-charges read in
  atomic valenz-charges read in
  non local Contribution for L=           0  read in
    real space projection operators read in
  non local Contribution for L=           0  read in
    real space projection operators read in
  non local Contribution for L=           1  read in
    real space projection operators read in
  non local Contribution for L=           1  read in
    real space projection operators read in
    PAW grid and wavefunctions read in
 
   number of l-projection  operators is LMAX  =           4
   number of lm-projection operators is LMMAX =           8
 
 POTCAR:    PAW_PBE Cl 17Jan2003                  
   VRHFIN =Cl: s2p5                                                                                 
   LEXCH  = PE                                                                                      
   EATOM  =   409.7259 eV,   30.1140 Ry                                                             
                                                                                                    
   TITEL  = PAW_PBE Cl 17Jan2003                                                                    
   LULTRA =        F    use ultrasoft PP ?                                                          
   IUNSCR =        1    unscreen: 0-lin 1-nonlin 2-no                                               
   RPACOR =    1.500    partial core radius                                                         
   POMASS =   35.453; ZVAL   =    7.000    mass and valenz                                          
   RCORE  =    1.900    outmost cutoff radius                                                       
   RWIGS  =    2.100; RWIGS  =    1.111    wigner-seitz radius (au A)                               
   ENMAX  =  280.000; ENMIN  =  196.854 eV                                                          
   ICORE  =        2    local potential                                                             
   LCOR   =        T    correct aug charges                                                         
   LPAW   =        T    paw PP                                                                      
   EAUG   =  356.192                                                                                
   DEXC   =     .000                                                                                
   RMAX   =    2.846    core radius for proj-oper                                                   
   RAUG   =    1.300    factor for augmentation sphere                                              
   RDEP   =    2.020    radius for radial grids                                                     
   QCUT   =   -4.392; QGAM   =    8.784    optimization parameters                                  
                                                                                                    
   Description                                                                                      
     l     E      TYP  RCUT    TYP  RCUT                                                            
     0   .000     23  1.900                                                                         
     0   .000     23  1.900                                                                         
     1   .000     23  1.900                                                                         
     1   .000     23  1.900                                                                         
     2   .000     23  1.900                                                                         
  local pseudopotential read in
  partial core-charges read in
  atomic valenz-charges read in
  non local Contribution for L=           0  read in
    real space projection operators read in
  non local Contribution for L=           0  read in
    real space projection operators read in
  non local Contribution for L=           1  read in
    real space projection operators read in
  non local Contribution for L=           1  read in
    real space projection operators read in
    PAW grid and wavefunctions read in
 
   number of l-projection  operators is LMAX  =           4
   number of lm-projection operators is LMMAX =           8
 
 POTCAR:   PAW_PBE O 08Apr2002                    
   VRHFIN =O: s2p4                                                                                  
   LEXCH  = PE                                                                                      
   EATOM  =   432.3788 eV,   31.7789 Ry                                                             
                                                                                                    
   TITEL  = PAW_PBE O 08Apr2002                                                                     
   LULTRA =        F    use ultrasoft PP ?                                                          
   IUNSCR =        0    unscreen: 0-lin 1-nonlin 2-no                                               
   RPACOR =     .000    partial core radius                                                         
   POMASS =   16.000; ZVAL   =    6.000    mass and valenz                                          
   RCORE  =    1.520    outmost cutoff radius                                                       
   RWIGS  =    1.550; RWIGS  =     .820    wigner-seitz radius (au A)                               
   ENMAX  =  400.000; ENMIN  =  300.000 eV                                                          
   ICORE  =        2    local potential                                                             
   LCOR   =        T    correct aug charges                                                         
   LPAW   =        T    paw PP                                                                      
   EAUG   =  605.392                                                                                
   DEXC   =     .000                                                                                
   RMAX   =    2.264    core radius for proj-oper                                                   
   RAUG   =    1.300    factor for augmentation sphere                                              
   RDEP   =    1.550    radius for radial grids                                                     
   QCUT   =   -5.520; QGAM   =   11.041    optimization parameters                                  
                                                                                                    
   Description                                                                                      
     l     E      TYP  RCUT    TYP  RCUT                                                            
     0   .000     23  1.200                                                                         
     0  -.700     23  1.200                                                                         
     1   .000     23  1.520                                                                         
     1   .600     23  1.520                                                                         
     2   .000      7  1.500                                                                         
  local pseudopotential read in
  atomic valenz-charges read in
  non local Contribution for L=           0  read in
    real space projection operators read in
  non local Contribution for L=           0  read in
    real space projection operators read in
  non local Contribution for L=           1  read in
    real space projection operators read in
  non local Contribution for L=           1  read in
    real space projection operators read in
    PAW grid and wavefunctions read in
 
   number of l-projection  operators is LMAX  =           4
   number of lm-projection operators is LMMAX =           8
 
 Optimization of the real space projectors (new method)

 maximal supplied QI-value         = 19.84
 optimisation between [QCUT,QGAM] = [ 11.51, 23.22] = [ 37.09,150.92] Ry 
 Optimized for a Real-space Cutoff    1.18 Angstroem

   l    n(q)    QCUT    max X(q) W(low)/X(q) W(high)/X(q)  e(spline) 
   0      8    11.508    13.410    0.14E-04    0.92E-05    0.50E-08
   0      8    11.508   140.052    0.11E-03    0.16E-03    0.39E-07
   1      8    11.508     9.624    0.12E-04    0.31E-04    0.22E-07
   1      8    11.508    53.353    0.21E-03    0.91E-04    0.68E-07
 Optimization of the real space projectors (new method)

 maximal supplied QI-value         = 19.84
 optimisation between [QCUT,QGAM] = [ 11.51, 23.22] = [ 37.09,150.92] Ry 
 Optimized for a Real-space Cutoff    1.21 Angstroem

   l    n(q)    QCUT    max X(q) W(low)/X(q) W(high)/X(q)  e(spline) 
   0      8    11.508     4.846    0.17E-04    0.72E-06    0.45E-08
   0      8    11.508    64.115    0.84E-04    0.16E-03    0.48E-07
   1      8    11.508     3.092    0.23E-04    0.25E-04    0.20E-07
   1      8    11.508    37.586    0.18E-03    0.67E-04    0.95E-07
 Optimization of the real space projectors (new method)

 maximal supplied QI-value         = 24.76
 optimisation between [QCUT,QGAM] = [ 11.64, 23.27] = [ 37.91,151.63] Ry 
 Optimized for a Real-space Cutoff    1.08 Angstroem

   l    n(q)    QCUT    max X(q) W(low)/X(q) W(high)/X(q)  e(spline) 
   0      7    11.635     4.192    0.54E-04    0.80E-04    0.26E-07
   0      7    11.635     8.473    0.70E-04    0.40E-03    0.21E-06
   1      7    11.635     2.474    0.39E-04    0.14E-03    0.23E-07
   1      7    11.635     3.912    0.25E-03    0.37E-03    0.22E-06
 PAW_PBE Al 04Jan2001                   :
 energy of atom  1       EATOM=  -53.5387
 kinetic energy error for atom=    0.0002 (will be added to EATOM!!)
  PAW_PBE Cl 17Jan2003                  :
 energy of atom  2       EATOM= -409.7259
 kinetic energy error for atom=    0.0023 (will be added to EATOM!!)
 PAW_PBE O 08Apr2002                    :
 energy of atom  3       EATOM= -432.3788
 kinetic energy error for atom=    0.0208 (will be added to EATOM!!)
 
 
 POSCAR: Al20 Cl20 O20 -- Bulk
  positions in direct lattice
  No initial velocities read in


 exchange-correlation table for PE
   RHO(1)=    0.500       N(1)  =     2000
   RHO(2)=  100.500       N(2)  =     4000
 


--------------------------------------------------------------------------------------------------------


 ion  position               nearest neighbor table
   1  0.802  0.750  0.698-  41 1.88  44 1.88  55 2.00  56 2.00  21 2.32  30 2.32  19 2.94  15 2.94
                            18 2.94  16 2.94   2 3.17  10 3.17
   2  0.902  0.950  0.798-  45 1.88  42 1.88  57 2.00  56 2.00  22 2.32  21 2.32  20 2.94  16 2.94
                            17 2.94  19 2.94   3 3.17   1 3.17
   3  0.002  0.150  0.898-  46 1.88  43 1.88  57 2.00  58 2.00  22 2.32  23 2.32  11 2.94  17 2.94
                            20 2.94  18 2.94   2 3.17   4 3.17
   4  0.102  0.350  0.998-  44 1.88  47 1.88  59 2.00  58 2.00  23 2.32  24 2.32  12 2.94  18 2.94
                            19 2.94  11 2.94   5 3.17   3 3.17
   5  0.202  0.550  0.098-  45 1.88  48 1.88  59 2.00  60 2.00  24 2.32  25 2.32  19 2.94  13 2.94
                            12 2.94  20 2.94   4 3.17   6 3.17
   6  0.302  0.750  0.198-  46 1.88  49 1.88  51 2.00  60 2.00  25 2.32  26 2.32  14 2.94  20 2.94
                            11 2.94  13 2.94   5 3.17   7 3.17
   7  0.402  0.950  0.298-  50 1.88  47 1.88  52 2.00  51 2.00  27 2.32  26 2.32  15 2.94  11 2.94
                            12 2.94  14 2.94   8 3.17   6 3.17
   8  0.502  0.150  0.398-  41 1.88  48 1.88  52 2.00  53 2.00  27 2.32  28 2.32  16 2.94  12 2.94
                            15 2.94  13 2.94   7 3.17   9 3.17
   9  0.602  0.350  0.498-  49 1.88  42 1.88  54 2.00  53 2.00  28 2.32  29 2.32  17 2.94  13 2.94
                            14 2.94  16 2.94  10 3.17   8 3.17
  10  0.702  0.550  0.598-  50 1.88  43 1.88  54 2.00  55 2.00  29 2.32  30 2.32  14 2.94  18 2.94
                            17 2.94  15 2.94   9 3.17   1 3.17
  11  0.098  0.050  0.202-  58 1.88  51 1.88  46 2.00  47 2.00  31 2.32  32 2.32   3 2.94   7 2.94
                             6 2.94   4 2.94  20 3.17  12 3.17
  12  0.198  0.250  0.302-  52 1.88  59 1.88  47 2.00  48 2.00  32 2.32  33 2.32   4 2.94   8 2.94
                             7 2.94   5 2.94  11 3.17  13 3.17
  13  0.298  0.450  0.402-  53 1.88  60 1.88  49 2.00  48 2.00  34 2.32  33 2.32   9 2.94   5 2.94
                             6 2.94   8 2.94  14 3.17  12 3.17
  14  0.398  0.650  0.502-  54 1.88  51 1.88  49 2.00  50 2.00  34 2.32  35 2.32   6 2.94  10 2.94
                             9 2.94   7 2.94  13 3.17  15 3.17
  15  0.498  0.850  0.602-  52 1.88  55 1.88  41 2.00  50 2.00  35 2.32  36 2.32   7 2.94   1 2.94
                             8 2.94  10 2.94  16 3.17  14 3.17
  16  0.598  0.050  0.702-  53 1.88  56 1.88  41 2.00  42 2.00  36 2.32  37 2.32   8 2.94   2 2.94
                             1 2.94   9 2.94  15 3.17  17 3.17
  17  0.698  0.250  0.802-  54 1.88  57 1.88  42 2.00  43 2.00  37 2.32  38 2.32   9 2.94   3 2.94
                             2 2.94  10 2.94  16 3.17  18 3.17
  18  0.798  0.450  0.902-  58 1.88  55 1.88  44 2.00  43 2.00  39 2.32  38 2.32   4 2.94  10 2.94
                             1 2.94   3 2.94  19 3.17  17 3.17
  19  0.898  0.650  0.002-  59 1.88  56 1.88  44 2.00  45 2.00  39 2.32  40 2.32   1 2.94   5 2.94
                             4 2.94   2 2.94  18 3.17  20 3.17
  20  0.998  0.850  0.102-  57 1.88  60 1.88  46 2.00  45 2.00  31 2.32  40 2.32   2 2.94   6 2.94
                             3 2.94   5 2.94  11 3.17  19 3.17
  21  0.958  0.850  0.642-   1 2.32   2 2.32
  22  0.058  0.050  0.742-   2 2.32   3 2.32
  23  0.158  0.250  0.842-   3 2.32   4 2.32
  24  0.258  0.450  0.942-   5 2.32   4 2.32
  25  0.358  0.650  0.042-   6 2.32   5 2.32
  26  0.458  0.850  0.142-   6 2.32   7 2.32
  27  0.558  0.050  0.242-   7 2.32   8 2.32
  28  0.658  0.250  0.342-   8 2.32   9 2.32
  29  0.758  0.450  0.442-  10 2.32   9 2.32
  30  0.858  0.650  0.542-   1 2.32  10 2.32
  31  0.942  0.950  0.258-  11 2.32  20 2.32
  32  0.042  0.150  0.358-  12 2.32  11 2.32
  33  0.142  0.350  0.458-  12 2.32  13 2.32
  34  0.242  0.550  0.558-  13 2.32  14 2.32
  35  0.342  0.750  0.658-  14 2.32  15 2.32
  36  0.442  0.950  0.758-  16 2.32  15 2.32
  37  0.542  0.150  0.858-  17 2.32  16 2.32
  38  0.642  0.350  0.958-  17 2.32  18 2.32
  39  0.742  0.550  0.058-  18 2.32  19 2.32
  40  0.842  0.750  0.158-  19 2.32  20 2.32
  41  0.625  0.950  0.575-   8 1.88   1 1.88  16 2.00  15 2.00
  42  0.725  0.150  0.675-   2 1.88   9 1.88  16 2.00  17 2.00
  43  0.825  0.350  0.775-  10 1.88   3 1.88  17 2.00  18 2.00
  44  0.925  0.550  0.875-   4 1.88   1 1.88  18 2.00  19 2.00
  45  0.025  0.750  0.975-   2 1.88   5 1.88  19 2.00  20 2.00
  46  0.125  0.950  0.075-   3 1.88   6 1.88  11 2.00  20 2.00
  47  0.225  0.150  0.175-   7 1.88   4 1.88  11 2.00  12 2.00
  48  0.325  0.350  0.275-   5 1.88   8 1.88  12 2.00  13 2.00
  49  0.425  0.550  0.375-   9 1.88   6 1.88  13 2.00  14 2.00
  50  0.525  0.750  0.475-   7 1.88  10 1.88  14 2.00  15 2.00
  51  0.275  0.850  0.325-  11 1.88  14 1.88   6 2.00   7 2.00
  52  0.375  0.050  0.425-  15 1.88  12 1.88   7 2.00   8 2.00
  53  0.475  0.250  0.525-  13 1.88  16 1.88   8 2.00   9 2.00
  54  0.575  0.450  0.625-  14 1.88  17 1.88  10 2.00   9 2.00
  55  0.675  0.650  0.725-  18 1.88  15 1.88   1 2.00  10 2.00
  56  0.775  0.850  0.825-  16 1.88  19 1.88   1 2.00   2 2.00
  57  0.875  0.050  0.925-  20 1.88  17 1.88   2 2.00   3 2.00
  58  0.975  0.250  0.025-  11 1.88  18 1.88   3 2.00   4 2.00
  59  0.075  0.450  0.125-  19 1.88  12 1.88   5 2.00   4 2.00
  60  0.175  0.650  0.225-  13 1.88  20 1.88   5 2.00   6 2.00
 

IMPORTANT INFORMATION: All symmetrisations will be switched off!
NOSYMM: (Re-)initialisation of all symmetry stuff for point group C_1.


----------------------------------------------------------------------------------------

                                     Primitive cell                                     

  volume of cell :     928.0923

  direct lattice vectors                    reciprocal lattice vectors
     3.659500676  6.340493806 -7.999746632     0.081978397  0.031543284 -0.062501980
    -3.659500676  9.510740710  0.000000000    -0.109304530  0.063086569  0.000000000
     3.659500676  6.340493806  7.999746632     0.081978397  0.031543284  0.062501980

  length of vectors
    10.843880905 10.190492336 10.843880905     0.107805073  0.126203785  0.107805073

  position of ions in fractional coordinates (direct lattice)
     0.802089726  0.750000000  0.697910274
     0.902089726  0.950000000  0.797910274
     0.002089726  0.150000000  0.897910274
     0.102089726  0.350000000  0.997910274
     0.202089726  0.550000000  0.097910274
     0.302089726  0.750000000  0.197910274
     0.402089726  0.950000000  0.297910274
     0.502089726  0.150000000  0.397910274
     0.602089726  0.350000000  0.497910274
     0.702089726  0.550000000  0.597910274
     0.097910274  0.050000000  0.202089726
     0.197910274  0.250000000  0.302089726
     0.297910274  0.450000000  0.402089726
     0.397910274  0.650000000  0.502089726
     0.497910274  0.850000000  0.602089726
     0.597910274  0.050000000  0.702089726
     0.697910274  0.250000000  0.802089726
     0.797910274  0.450000000  0.902089726
     0.897910274  0.650000000  0.002089726
     0.997910274  0.850000000  0.102089726
     0.957608130  0.850000000  0.642391870
     0.057608130  0.050000000  0.742391870
     0.157608130  0.250000000  0.842391870
     0.257608130  0.450000000  0.942391870
     0.357608130  0.650000000  0.042391870
     0.457608130  0.850000000  0.142391870
     0.557608130  0.050000000  0.242391870
     0.657608130  0.250000000  0.342391870
     0.757608130  0.450000000  0.442391870
     0.857608130  0.650000000  0.542391870
     0.942391870  0.950000000  0.257608130
     0.042391870  0.150000000  0.357608130
     0.142391870  0.350000000  0.457608130
     0.242391870  0.550000000  0.557608130
     0.342391870  0.750000000  0.657608130
     0.442391870  0.950000000  0.757608130
     0.542391870  0.150000000  0.857608130
     0.642391870  0.350000000  0.957608130
     0.742391870  0.550000000  0.057608130
     0.842391870  0.750000000  0.157608130
     0.624517770  0.950000000  0.575482230
     0.724517770  0.150000000  0.675482230
     0.824517770  0.350000000  0.775482230
     0.924517770  0.550000000  0.875482230
     0.024517770  0.750000000  0.975482230
     0.124517770  0.950000000  0.075482230
     0.224517770  0.150000000  0.175482230
     0.324517770  0.350000000  0.275482230
     0.424517770  0.550000000  0.375482230
     0.524517770  0.750000000  0.475482230
     0.275482230  0.850000000  0.324517770
     0.375482230  0.050000000  0.424517770
     0.475482230  0.250000000  0.524517770
     0.575482230  0.450000000  0.624517770
     0.675482230  0.650000000  0.724517770
     0.775482230  0.850000000  0.824517770
     0.875482230  0.050000000  0.924517770
     0.975482230  0.250000000  0.024517770
     0.075482230  0.450000000  0.124517770
     0.175482230  0.650000000  0.224517770

  ion indices of the primitive-cell ions
   primitive index   ion index
                 1           1
                 2           2
                 3           3
                 4           4
                 5           5
                 6           6
                 7           7
                 8           8
                 9           9
                10          10
                11          11
                12          12
                13          13
                14          14
                15          15
                16          16
                17          17
                18          18
                19          19
                20          20
                21          21
                22          22
                23          23
                24          24
                25          25
                26          26
                27          27
                28          28
                29          29
                30          30
                31          31
                32          32
                33          33
                34          34
                35          35
                36          36
                37          37
                38          38
                39          39
                40          40
                41          41
                42          42
                43          43
                44          44
                45          45
                46          46
                47          47
                48          48
                49          49
                50          50
                51          51
                52          52
                53          53
                54          54
                55          55
                56          56
                57          57
                58          58
                59          59
                60          60

----------------------------------------------------------------------------------------

 
 
 KPOINTS: KPOINTS from doped, with reciprocal_dens

Automatic generation of k-mesh.
 Grid dimensions read from file:
 generate k-points for:    2    3    2

 Generating k-lattice:

  Cartesian coordinates                     Fractional coordinates (reciprocal lattice)
     0.040989199  0.015771642 -0.031250990     0.500000000  0.000000000  0.000000000
    -0.036434843  0.021028856  0.000000000     0.000000000  0.333333333  0.000000000
     0.040989199  0.015771642  0.031250990     0.000000000  0.000000000  0.500000000

  Length of vectors
     0.053902537  0.042067928  0.053902537

  Shift w.r.t. Gamma in fractional coordinates (k-lattice)
     0.000000000  0.000000000  0.000000000

 
 Subroutine IBZKPT returns following result:
 ===========================================
 
 Found      8 irreducible k-points:
 
 Following reciprocal coordinates:
            Coordinates               Weight
  0.000000  0.000000  0.000000      1.000000
  0.500000  0.000000  0.000000      1.000000
  0.000000  0.000000  0.500000      1.000000
  0.000000  0.333333  0.000000      2.000000
  0.500000  0.333333  0.000000      2.000000
  0.000000 -0.333333  0.500000      2.000000
  0.500000  0.000000  0.500000      1.000000
  0.500000  0.333333  0.500000      2.000000
 
 Following cartesian coordinates:
            Coordinates               Weight
  0.000000  0.000000  0.000000      1.000000
  0.040989  0.015772 -0.031251      1.000000
  0.040989  0.015772  0.031251      1.000000
 -0.036435  0.021029  0.000000      2.000000
  0.004554  0.036800 -0.031251      2.000000
  0.077424 -0.005257  0.031251      2.000000
  0.081978  0.031543  0.000000      1.000000
  0.045544  0.052572  0.000000      2.000000
 


--------------------------------------------------------------------------------------------------------




 Dimension of arrays:
   k-points           NKPTS =      8   k-points in BZ     NKDIM =      8   number of bands    NBANDS=    210
   number of dos      NEDOS =   3000   number of ions     NIONS =     60
   non local maximal  LDIM  =      4   non local SUM 2l+1 LMDIM =      8
   total plane-waves  NPLWV = 564480
   max r-space proj   IRMAX =   4572   max aug-charges    IRDMAX=  23868
   dimension x,y,z NGX =    84 NGY =   80 NGZ =   84
   dimension x,y,z NGXF=   168 NGYF=  160 NGZF=  168
   support grid    NGXF=   168 NGYF=  160 NGZF=  168
   ions per type =              20  20  20
   NGX,Y,Z   is equivalent  to a cutoff of  12.88, 13.05, 12.88 a.u.
   NGXF,Y,Z  is equivalent  to a cutoff of  25.76, 26.10, 25.76 a.u.

 SYSTEM =  unknown system                          
 POSCAR =  Al20 Cl20 O20 -- Bulk                   

 Startparameter for this run:
   NWRITE =      2    write-flag & timer
   PREC   = accura    normal or accurate (medium, high low for compatibility)
   ISTART =      0    job   : 0-new  1-cont  2-samecut
   ICHARG =      1    charge: 1-file 2-atom 10-const
   ISPIN  =      2    spin polarized calculation?
   LNONCOLLINEAR =      F non collinear calculations
   LSORBIT =      F    spin-orbit coupling
   INIWAV =      1    electr: 0-lowe 1-rand  2-diag
   LASPH  =      T    aspherical Exc in radial PAW
 Electronic Relaxation 1
   ENCUT  =  520.0 eV  38.22 Ry    6.18 a.u.  20.16 18.95 20.16*2*pi/ulx,y,z
   ENINI  =  520.0     initial cutoff
   ENAUG  =  605.4 eV  augmentation charge cutoff
   NELM   =     60;   NELMIN=  2; NELMDL= -5     # of ELM steps 
   EDIFF  = 0.1E-05   stopping-criterion for ELM
   LREAL  =      T    real-space projection
   NLSPLINE    = F    spline interpolate recip. space projectors
   LCOMPAT=      F    compatible to vasp.4.4
   GGA_COMPAT  = T    GGA compatible to vasp.4.4-vasp.4.6
   LMAXPAW     = -100 max onsite density
   LMAXMIX     =    2 max onsite mixed and CHGCAR
   VOSKOWN=      0    Vosko Wilk Nusair interpolation
   ROPT   =   -0.00025  -0.00025  -0.00025
 Ionic relaxation
   EDIFFG = 0.1E-04   stopping-criterion for IOM
   NSW    =      0    number of steps for IOM
   NBLOCK =      1;   KBLOCK =      1    inner block; outer block 
   IBRION =     -1    ionic relax: 0-MD 1-quasi-New 2-CG
   NFREE  =      0    steps in history (QN), initial steepest desc. (CG)
   ISIF   =      2    stress and relaxation
   IWAVPR =     10    prediction:  0-non 1-charg 2-wave 3-comb
   ISYM   =      0    0-nonsym 1-usesym 2-fastsym
   LCORR  =      T    Harris-Foulkes like correction to forces

   POTIM  = 0.5000    time-step for ionic-motion
   TEIN   =    0.0    initial temperature
   TEBEG  =    0.0;   TEEND  =   0.0 temperature during run
   SMASS  =  -3.00    Nose mass-parameter (am)
   estimated Nose-frequenzy (Omega)   =  0.10E-29 period in steps = 0.13E+47 mass=  -0.269E-26a.u.
   SCALEE = 1.0000    scale energy and forces
   NPACO  =    256;   APACO  = 10.0  distance and # of slots for P.C.
   PSTRESS=    0.0 pullay stress

  Mass of Ions in am
   POMASS =  26.98 35.45 16.00
  Ionic Valenz
   ZVAL   =   3.00  7.00  6.00
  Atomic Wigner-Seitz radii
   RWIGS  =  -1.00 -1.00 -1.00
  virtual crystal weights 
   VCA    =   1.00  1.00  1.00
   NELECT =     320.0000    total number of electrons
   NUPDOWN=       0.0000    fix difference up-down

 DOS related values:
   EMIN   =  10.00;   EMAX   =-10.00  energy-range for DOS
   EFERMI =   0.00;   METHOD = LEGACY      
   ISMEAR =     0;   SIGMA  =   0.05  broadening in eV -4-tet -1-fermi 0-gaus

 Electronic relaxation 2 (details)
   IALGO  =     38    algorithm
   LDIAG  =      T    sub-space diagonalisation (order eigenvalues)
   LSUBROT=      F    optimize rotation matrix (better conditioning)
   TURBO    =      0    0=normal 1=particle mesh
   IRESTART =      0    0=no restart 2=restart with 2 vectors
   NREBOOT  =      0    no. of reboots
   NMIN     =      0    reboot dimension
   EREF     =   0.00    reference energy to select bands
   IMIX   =      4    mixing-type and parameters
     AMIX     =   0.40;   BMIX     =  1.00
     AMIX_MAG =   1.60;   BMIX_MAG =  1.00
     AMIN     =   0.10
     WC   =   100.;   INIMIX=   1;  MIXPRE=   1;  MAXMIX= -45

 Intra band minimization:
   WEIMIN = 0.0000     energy-eigenvalue tresh-hold
   EBREAK =  0.12E-08  absolut break condition
   DEPER  =   0.30     relativ break condition  

   TIME   =   0.40     timestep for ELM

  volume/ion in A,a.u.               =      15.47       104.38
  Fermi-wavevector in a.u.,A,eV,Ry     =   1.147963  2.169335 17.930007  1.317818
  Thomas-Fermi vector in A             =   2.284640
 
 Write flags
   LWAVE        =      T    write WAVECAR
   LDOWNSAMPLE  =      F    k-point downsampling of WAVECAR
   LCHARG       =      T    write CHGCAR
   LVTOT        =      F    write LOCPOT, total local potential
   LVHAR        =      T    write LOCPOT, Hartree potential only
   WRT_POTENTIAL=  hartree ionic  ! write potential to hdf5 file
   LELF         =      F    write electronic localiz. function (ELF)
   LORBIT       =     11    0 simple, 1 ext, 2 COOP (PROOUT), +10 PAW based schemes


 Dipole corrections
   LMONO      =      F    monopole corrections only (constant potential shift)
   LDIPOL     =      F    correct potential (dipole corrections)
   IDIPOL     =      0    1-x, 2-y, 3-z, 4-all directions 
   EPSILON    =  1.0000000 bulk dielectric constant
   LVACPOTAV  =      F  vacuum potentials using an averaging scheme for the charge density
   VACPOTFLAT =  0.1000000 required flatness to determine vacuum potential
 LDA+U is selected, type is set to LDAUTYPE =  2
   angular momentum for each species LDAUL =     2    2    2
   U (eV)           for each species LDAUU =   0.0  0.0  0.0
   J (eV)           for each species LDAUJ =   0.0  0.0  0.0
 Exchange correlation treatment:
   GGA     = PE    functional components
   XC_C    = 1    coefficients multiplying the functional components
   LIBXC   =     F    Libxc                    
   VOSKOWN =     0    Vosko Wilk Nusair interpolation
   LHFCALC =     F    Hartree Fock is set to
   LHFONE  =     F    Hartree Fock one center treatment
   AEXX    =    0.0000 exact exchange contribution

 Parameters of functionals:
   PE:
     No parameter
 
 Van der Waals corrections
   IVDW    =     0    specifies the selected vdW correction

 Linear response parameters
   LEPSILON=     F    determine dielectric tensor
   LRPA    =     F    only Hartree local field effects (RPA)
   LNABLA  =     F    use nabla operator in PAW spheres
   LVEL    =     F    velocity operator in full k-point grid
   CSHIFT  =0.1000    complex shift for real part using Kramers Kronig
   OMEGAMAX=  -1.0    maximum frequency
   DEG_THRESHOLD= 0.2000000E-02 threshold for treating states as degnerate
   RTIME   =   -0.100 relaxation time in fs
  (WPLASMAI=    0.000 imaginary part of plasma frequency in eV, 0.658/RTIME)
   DFIELD  = 0.0000000 0.0000000 0.0000000 field for delta impulse in time
 
  Optional k-point grid parameters
   LKPOINTS_OPT  =     F    use optional k-point grid
   KPOINTS_OPT_MODE=     1    mode for optional k-point grid
 
 Orbital magnetization related:
   ORBITALMAG=     F  switch on orbital magnetization
   LCHIMAG   =     F  perturbation theory with respect to B field
   DQ        =  0.001000  dq finite difference perturbation B field
   LLRAUG    =     F  two centre corrections for induced B field
   LBONE     =     F  B-component reconstruction in AE one-centre
   LVGVCALC  =     T  calculate vGv susceptibility
   LVGVAPPL  =     F  apply vGv susceptibility instead of pGv for G=0

 Random number generation:
   RANDOM_GENERATOR = DEFAULT
   PCG_SEED         = not used


--------------------------------------------------------------------------------------------------------


 Static calculation
 charge density and potential will be updated during run
 spin polarized calculation
 Variant of blocked Davidson
 Davidson routine will perform the subspace rotation
 perform sub-space diagonalisation
    after iterative eigenvector-optimisation
 modified Broyden-mixing scheme, WC =      100.0
 initial mixing is a Kerker type mixing with AMIX =  0.4000 and BMIX =      1.0000
 Hartree-type preconditioning will be used
 using additional bands           50
 real space projection scheme for non local part
 use partial core corrections
 calculate Harris-corrections to forces 
   (improved forces if not selfconsistent)
 use gradient corrections 
 use of overlap-Matrix (Vanderbilt PP)
 Gauss-broadening in eV      SIGMA  =   0.05


--------------------------------------------------------------------------------------------------------


  energy-cutoff  :      520.00
  volume of cell :      928.09
      direct lattice vectors                 reciprocal lattice vectors
     3.659500676  6.340493806 -7.999746632     0.081978397  0.031543284 -0.062501980
    -3.659500676  9.510740710  0.000000000    -0.109304530  0.063086569  0.000000000
     3.659500676  6.340493806  7.999746632     0.081978397  0.031543284  0.062501980

  length of vectors
    10.843880905 10.190492336 10.843880905     0.107805073  0.126203785  0.107805073


 
 k-points in units of 2pi/SCALE and weight: KPOINTS from doped, with reciprocal_dens
   0.00000000  0.00000000  0.00000000       0.083
   0.04098920  0.01577164 -0.03125099       0.083
   0.04098920  0.01577164  0.03125099       0.083
  -0.03643484  0.02102886  0.00000000       0.167
   0.00455436  0.03680050 -0.03125099       0.167
   0.07742404 -0.00525721  0.03125099       0.167
   0.08197840  0.03154328  0.00000000       0.083
   0.04554355  0.05257214  0.00000000       0.167
 
 k-points in reciprocal lattice and weights: KPOINTS from doped, with reciprocal_dens
   0.00000000  0.00000000  0.00000000       0.083
   0.50000000  0.00000000  0.00000000       0.083
   0.00000000  0.00000000  0.50000000       0.083
   0.00000000  0.33333333  0.00000000       0.167
   0.50000000  0.33333333  0.00000000       0.167
   0.00000000 -0.33333333  0.50000000       0.167
   0.50000000  0.00000000  0.50000000       0.083
   0.50000000  0.33333333  0.50000000       0.167
 
 position of ions in fractional coordinates (direct lattice) 
   0.80208973  0.75000000  0.69791027
   0.90208973  0.95000000  0.79791027
   0.00208973  0.15000000  0.89791027
   0.10208973  0.35000000  0.99791027
   0.20208973  0.55000000  0.09791027
   0.30208973  0.75000000  0.19791027
   0.40208973  0.95000000  0.29791027
   0.50208973  0.15000000  0.39791027
   0.60208973  0.35000000  0.49791027
   0.70208973  0.55000000  0.59791027
   0.09791027  0.05000000  0.20208973
   0.19791027  0.25000000  0.30208973
   0.29791027  0.45000000  0.40208973
   0.39791027  0.65000000  0.50208973
   0.49791027  0.85000000  0.60208973
   0.59791027  0.05000000  0.70208973
   0.69791027  0.25000000  0.80208973
   0.79791027  0.45000000  0.90208973
   0.89791027  0.65000000  0.00208973
   0.99791027  0.85000000  0.10208973
   0.95760813  0.85000000  0.64239187
   0.05760813  0.05000000  0.74239187
   0.15760813  0.25000000  0.84239187
   0.25760813  0.45000000  0.94239187
   0.35760813  0.65000000  0.04239187
   0.45760813  0.85000000  0.14239187
   0.55760813  0.05000000  0.24239187
   0.65760813  0.25000000  0.34239187
   0.75760813  0.45000000  0.44239187
   0.85760813  0.65000000  0.54239187
   0.94239187  0.95000000  0.25760813
   0.04239187  0.15000000  0.35760813
   0.14239187  0.35000000  0.45760813
   0.24239187  0.55000000  0.55760813
   0.34239187  0.75000000  0.65760813
   0.44239187  0.95000000  0.75760813
   0.54239187  0.15000000  0.85760813
   0.64239187  0.35000000  0.95760813
   0.74239187  0.55000000  0.05760813
   0.84239187  0.75000000  0.15760813
   0.62451777  0.95000000  0.57548223
   0.72451777  0.15000000  0.67548223
   0.82451777  0.35000000  0.77548223
   0.92451777  0.55000000  0.87548223
   0.02451777  0.75000000  0.97548223
   0.12451777  0.95000000  0.07548223
   0.22451777  0.15000000  0.17548223
   0.32451777  0.35000000  0.27548223
   0.42451777  0.55000000  0.37548223
   0.52451777  0.75000000  0.47548223
   0.27548223  0.85000000  0.32451777
   0.37548223  0.05000000  0.42451777
   0.47548223  0.25000000  0.52451777
   0.57548223  0.45000000  0.62451777
   0.67548223  0.65000000  0.72451777
   0.77548223  0.85000000  0.82451777
   0.87548223  0.05000000  0.92451777
   0.97548223  0.25000000  0.02451777
   0.07548223  0.45000000  0.12451777
   0.17548223  0.65000000  0.22451777
 
 position of ions in cartesian coordinates  (Angst):
   2.74462551 16.64379624 -0.83340922
   2.74462551 19.81404314 -0.83340922
   2.74462551  7.13305553  7.16633741
   2.74462551 10.30330244  7.16633741
  -0.91487517  7.13305553 -0.83340922
  -0.91487517 10.30330244 -0.83340922
  -0.91487517 13.47354934 -0.83340922
   2.74462551  7.13305553 -0.83340922
   2.74462551 10.30330244 -0.83340922
   2.74462551 13.47354934 -0.83340922
   0.91487517  2.37768518  0.83340922
   0.91487517  5.54793208  0.83340922
   0.91487517  8.71817898  0.83340922
   0.91487517 11.88842589  0.83340922
   0.91487517 15.05867279  0.83340922
   4.57437584  8.71817898  0.83340922
   4.57437584 11.88842589  0.83340922
   4.57437584 15.05867279  0.83340922
   0.91487517 11.88842589 -7.16633741
   0.91487517 15.05867279 -7.16633741
   2.74462551 18.22891969 -2.52165021
   2.74462551  5.54793208  5.47809642
   2.74462551  8.71817898  5.47809642
   2.74462551 11.88842589  5.47809642
  -0.91487517  8.71817898 -2.52165021
  -0.91487517 11.88842589 -2.52165021
   2.74462551  5.54793208 -2.52165021
   2.74462551  8.71817898 -2.52165021
   2.74462551 11.88842589 -2.52165021
   2.74462551 15.05867279 -2.52165021
   0.91487517 16.64379624 -5.47809642
   0.91487517  3.96280863  2.52165021
   0.91487517  7.13305553  2.52165021
   0.91487517 10.30330244  2.52165021
   0.91487517 13.47354934  2.52165021
   0.91487517 16.64379624  2.52165021
   4.57437585 10.30330243  2.52165021
   4.57437584 13.47354934  2.52165021
   0.91487517 10.30330244 -5.47809642
   0.91487517 13.47354934 -5.47809642
   0.91487517 16.64379624 -0.39227190
   4.57437584 10.30330243 -0.39227190
   4.57437585 13.47354934 -0.39227190
   4.57437585 16.64379624 -0.39227190
   0.91487517 13.47354934  7.60747474
  -2.74462551 10.30330244 -0.39227190
   0.91487517  3.96280863 -0.39227190
   0.91487517  7.13305553 -0.39227190
   0.91487517 10.30330244 -0.39227190
   0.91487517 13.47354934 -0.39227190
  -0.91487517 11.88842589  0.39227190
   2.74462551  5.54793208  0.39227190
   2.74462551  8.71817898  0.39227190
   2.74462551 11.88842589  0.39227190
   2.74462551 15.05867279  0.39227190
   2.74462551 18.22891969  0.39227190
   6.40412618 11.88842589  0.39227190
   2.74462551  8.71817898 -7.60747474
  -0.91487517  5.54793208  0.39227190
  -0.91487517  8.71817898  0.39227190
 


--------------------------------------------------------------------------------------------------------


 k-point     1 :   0.0000 0.0000 0.0000  plane waves:   24965
 k-point     2 :   0.5000 0.0000 0.0000  plane waves:   24972
 k-point     3 :   0.0000 0.0000 0.5000  plane waves:   24972
 k-point     4 :   0.0000 0.3333 0.0000  plane waves:   25023
 k-point     5 :   0.5000 0.3333 0.0000  plane waves:   24993
 k-point     6 :   0.0000-0.3333 0.5000  plane waves:   24993
 k-point     7 :   0.5000 0.0000 0.5000  plane waves:   25002
 k-point     8 :   0.5000 0.3333 0.5000  plane waves:   24975

 maximum and minimum number of plane-waves per node :      3163     3094

 maximum number of plane-waves:     25023
 maximum index in each direction: 
   IXMAX=   20   IYMAX=   19   IZMAX=   20
   IXMIN=  -20   IYMIN=  -19   IZMIN=  -20


 real space projection operators:
  total allocation   :      14331.50 KBytes
  max/ min on nodes  :       1877.00       1705.50


 parallel 3D FFT for wavefunctions:
    minimum data exchange during FFTs selected (reduces bandwidth)
 parallel 3D FFT for charge:
    minimum data exchange during FFTs selected (reduces bandwidth)


 total amount of memory used by VASP MPI-rank0   285697. kBytes
=======================================================================

   base      :      30000. kBytes
   nonlr-proj:       6928. kBytes
   fftplans  :      21342. kBytes
   grid      :      56099. kBytes
   one-center:         49. kBytes
   wavefun   :     171279. kBytes
 
     INWAV:  cpu time      0.0000: real time      0.0002
 Broyden mixing: mesh for mixing (old mesh)
   NGX = 41   NGY = 37   NGZ = 41
  (NGX  =168   NGY  =160   NGZ  =168)
  gives a total of  62197 points

 initial charge density was supplied:
 charge density of overlapping atoms calculated
 number of electron     320.0000000 magnetization      36.0000000
 keeping initial charge density in first step


--------------------------------------------------------------------------------------------------------


 Maximum index for non-local projection operator          712
 Maximum index for augmentation-charges         2923 (set IRDMAX)


--------------------------------------------------------------------------------------------------------


 First call to EWALD:  gamma=   0.182
 Maximum number of real-space cells 3x 3x 3
 Maximum number of reciprocal cells 3x 3x 3

    FEWALD:  cpu time      0.0026: real time      0.0027


--------------------------------------- Ionic step        1  -------------------------------------------




--------------------------------------- Iteration      1(   1)  ---------------------------------------


    POTLOK:  cpu time      0.9046: real time      0.9091
    SETDIJ:  cpu time      0.2669: real time      0.2675
     EDDAV:  cpu time     11.5410: real time     11.6209
       DOS:  cpu time      0.0029: real time      0.0031
    --------------------------------------------
      LOOP:  cpu time     12.7154: real time     12.8006

 eigenvalue-minimisations  :  6720
 total energy-change (2. order) : 0.2112897E+04  (-0.1523796E+05)
 number of electron     320.0000000 magnetization      36.0000000
 augmentation part      320.0000000 magnetization      36.0000000

 Free energy of the ion-electron system (eV)
  ---------------------------------------------------
  alpha Z        PSCENC =       360.01422175
  Ewald energy   TEWEN  =    -11647.32627473
  -Hartree energ DENC   =     -6386.77989299
  -exchange      EXHF   =         0.00000000
  -V(xc)+E(xc)   XCENC  =       450.48734383
  PAW double counting   =      9599.19056957    -8999.31455978
  entropy T*S    EENTRO =        -0.01834225
  eigenvalues    EBANDS =       824.24379381
  atomic energy  EATOM  =     17912.39994149
  Solvation  Ediel_sol  =         0.00000000
  ---------------------------------------------------
  free energy    TOTEN  =      2112.89680072 eV

  energy without entropy =     2112.91514296  energy(sigma->0) =     2112.90597184


--------------------------------------------------------------------------------------------------------




--------------------------------------- Iteration      1(   2)  ---------------------------------------


     EDDAV:  cpu time     13.4996: real time     13.5898
       DOS:  cpu time      0.0032: real time      0.0032
    --------------------------------------------
      LOOP:  cpu time     13.5028: real time     13.5930

 eigenvalue-minimisations  :  8284
 total energy-change (2. order) :-0.2287897E+04  (-0.2214432E+04)
 number of electron     320.0000000 magnetization      36.0000000
 augmentation part      320.0000000 magnetization      36.0000000

 Free energy of the ion-electron system (eV)
  ---------------------------------------------------
  alpha Z        PSCENC =       360.01422175
  Ewald energy   TEWEN  =    -11647.32627473
  -Hartree energ DENC   =     -6386.77989299
  -exchange      EXHF   =         0.00000000
  -V(xc)+E(xc)   XCENC  =       450.48734383
  PAW double counting   =      9599.19056957    -8999.31455978
  entropy T*S    EENTRO =        -0.00000000
  eigenvalues    EBANDS =     -1463.67186725
  atomic energy  EATOM  =     17912.39994149
  Solvation  Ediel_sol  =         0.00000000
  ---------------------------------------------------
  free energy    TOTEN  =      -175.00051810 eV

  energy without entropy =     -175.00051810  energy(sigma->0) =     -175.00051810


--------------------------------------------------------------------------------------------------------




--------------------------------------- Iteration      1(   3)  ---------------------------------------


     EDDAV:  cpu time     13.5388: real time     13.6270
       DOS:  cpu time      0.0033: real time      0.0033
    --------------------------------------------
      LOOP:  cpu time     13.5420: real time     13.6303

 eigenvalue-minimisations  :  8288
 total energy-change (2. order) :-0.2009948E+03  (-0.1998145E+03)
 number of electron     320.0000000 magnetization      36.0000000
 augmentation part      320.0000000 magnetization      36.0000000

 Free energy of the ion-electron system (eV)
  ---------------------------------------------------
  alpha Z        PSCENC =       360.01422175
  Ewald energy   TEWEN  =    -11647.32627473
  -Hartree energ DENC   =     -6386.77989299
  -exchange      EXHF   =         0.00000000
  -V(xc)+E(xc)   XCENC  =       450.48734383
  PAW double counting   =      9599.19056957    -8999.31455978
  entropy T*S    EENTRO =        -0.00000000
  eigenvalues    EBANDS =     -1664.66665560
  atomic energy  EATOM  =     17912.39994149
  Solvation  Ediel_sol  =         0.00000000
  ---------------------------------------------------
  free energy    TOTEN  =      -375.99530645 eV

  energy without entropy =     -375.99530645  energy(sigma->0) =     -375.99530645


--------------------------------------------------------------------------------------------------------




--------------------------------------- Iteration      1(   4)  ---------------------------------------


     EDDAV:  cpu time     13.2807: real time     13.3683
       DOS:  cpu time      0.0033: real time      0.0034
    --------------------------------------------
      LOOP:  cpu time     13.2840: real time     13.3717

 eigenvalue-minimisations  :  8096
 total energy-change (2. order) :-0.3902631E+01  (-0.3888828E+01)
 number of electron     320.0000000 magnetization      36.0000000
 augmentation part      320.0000000 magnetization      36.0000000

 Free energy of the ion-electron system (eV)
  ---------------------------------------------------
  alpha Z        PSCENC =       360.01422175
  Ewald energy   TEWEN  =    -11647.32627473
  -Hartree energ DENC   =     -6386.77989299
  -exchange      EXHF   =         0.00000000
  -V(xc)+E(xc)   XCENC  =       450.48734383
  PAW double counting   =      9599.19056957    -8999.31455978
  entropy T*S    EENTRO =        -0.00000000
  eigenvalues    EBANDS =     -1668.56928690
  atomic energy  EATOM  =     17912.39994149
  Solvation  Ediel_sol  =         0.00000000
  ---------------------------------------------------
  free energy    TOTEN  =      -379.89793774 eV

  energy without entropy =     -379.89793774  energy(sigma->0) =     -379.89793774


--------------------------------------------------------------------------------------------------------




--------------------------------------- Iteration      1(   5)  ---------------------------------------


     EDDAV:  cpu time     13.1699: real time     13.5839
       DOS:  cpu time      0.0032: real time      0.0032
    CHARGE:  cpu time      0.8818: real time      0.8854
    MIXING:  cpu time      0.0321: real time      0.0322
    --------------------------------------------
      LOOP:  cpu time     14.0870: real time     14.5047

 eigenvalue-minimisations  :  8032
 total energy-change (2. order) :-0.1021766E+00  (-0.1020606E+00)
 number of electron     319.9999998 magnetization      17.8840867
 augmentation part       -3.5033780 magnetization      18.0181592

 Broyden mixing:
  rms(total) = 0.40369E+01    rms(broyden)= 0.40362E+01
  rms(prec ) = 0.52618E+01
  weight for this iteration     100.00

 Free energy of the ion-electron system (eV)
  ---------------------------------------------------
  alpha Z        PSCENC =       360.01422175
  Ewald energy   TEWEN  =    -11647.32627473
  -Hartree energ DENC   =     -6386.77989299
  -exchange      EXHF   =         0.00000000
  -V(xc)+E(xc)   XCENC  =       450.48734383
  PAW double counting   =      9599.19056957    -8999.31455978
  entropy T*S    EENTRO =        -0.00000000
  eigenvalues    EBANDS =     -1668.67146347
  atomic energy  EATOM  =     17912.39994149
  Solvation  Ediel_sol  =         0.00000000
  ---------------------------------------------------
  free energy    TOTEN  =      -380.00011431 eV

  energy without entropy =     -380.00011431  energy(sigma->0) =     -380.00011431


--------------------------------------------------------------------------------------------------------




--------------------------------------- Iteration      1(   6)  ---------------------------------------


    POTLOK:  cpu time      0.9040: real time      0.9111
    SETDIJ:  cpu time      0.2762: real time      0.2767
     EDDAV:  cpu time     13.2586: real time     13.3415
       DOS:  cpu time      0.0032: real time      0.0032
    CHARGE:  cpu time      0.8845: real time      0.8880
    MIXING:  cpu time      0.0313: real time      0.0314
    --------------------------------------------
      LOOP:  cpu time     15.3577: real time     15.4519

 eigenvalue-minimisations  :  8000
 total energy-change (2. order) : 0.3164401E+02  (-0.1455564E+02)
 number of electron     319.9999999 magnetization       8.9177269
 augmentation part       -6.0892736 magnetization       8.7330003

 Broyden mixing:
  rms(total) = 0.12055E+01    rms(broyden)= 0.12045E+01
  rms(prec ) = 0.14143E+01
  weight for this iteration     100.00

 eigenvalues of (default mixing * dielectric matrix)
  average eigenvalue GAMMA=   0.9051
  0.9051

 Free energy of the ion-electron system (eV)
  ---------------------------------------------------
  alpha Z        PSCENC =       360.01422175
  Ewald energy   TEWEN  =    -11647.32627473
  -Hartree energ DENC   =     -6822.81137131
  -exchange      EXHF   =         0.00000000
  -V(xc)+E(xc)   XCENC  =       478.11516587
  PAW double counting   =     10749.86970357   -10158.50111298
  entropy T*S    EENTRO =        -0.00000000
  eigenvalues    EBANDS =     -1220.11637298
  atomic energy  EATOM  =     17912.39994149
  Solvation  Ediel_sol  =         0.00000000
  ---------------------------------------------------
  free energy    TOTEN  =      -348.35609932 eV

  energy without entropy =     -348.35609932  energy(sigma->0) =     -348.35609932


--------------------------------------------------------------------------------------------------------




--------------------------------------- Iteration      1(   7)  ---------------------------------------


    POTLOK:  cpu time      0.8920: real time      0.9032
    SETDIJ:  cpu time      0.2819: real time      0.2824
     EDDAV:  cpu time     13.1259: real time     13.2100
       DOS:  cpu time      0.0035: real time      0.0036
    CHARGE:  cpu time      0.8889: real time      0.8926
    MIXING:  cpu time      0.0323: real time      0.0324
    --------------------------------------------
      LOOP:  cpu time     15.2245: real time     15.3242

 eigenvalue-minimisations  :  7872
 total energy-change (2. order) :-0.2835230E+01  (-0.1142374E+01)
 number of electron     319.9999999 magnetization       1.4814250
 augmentation part       -6.4185580 magnetization       1.4096006

 Broyden mixing:
  rms(total) = 0.77688E+00    rms(broyden)= 0.77679E+00
  rms(prec ) = 0.91294E+00
  weight for this iteration     100.00

 eigenvalues of (default mixing * dielectric matrix)
  average eigenvalue GAMMA=   1.1485
  1.0996  1.1975

 Free energy of the ion-electron system (eV)
  ---------------------------------------------------
  alpha Z        PSCENC =       360.01422175
  Ewald energy   TEWEN  =    -11647.32627473
  -Hartree energ DENC   =     -6876.98065064
  -exchange      EXHF   =         0.00000000
  -V(xc)+E(xc)   XCENC  =       480.14541825
  PAW double counting   =     11018.17611923   -10427.26389881
  entropy T*S    EENTRO =        -0.00000000
  eigenvalues    EBANDS =     -1170.35620630
  atomic energy  EATOM  =     17912.39994149
  Solvation  Ediel_sol  =         0.00000000
  ---------------------------------------------------
  free energy    TOTEN  =      -351.19132975 eV

  energy without entropy =     -351.19132975  energy(sigma->0) =     -351.19132975


--------------------------------------------------------------------------------------------------------




--------------------------------------- Iteration      1(   8)  ---------------------------------------


    POTLOK:  cpu time      0.9049: real time      0.9091
    SETDIJ:  cpu time      0.2756: real time      0.2763
     EDDAV:  cpu time     13.2831: real time     13.3661
       DOS:  cpu time      0.0034: real time      0.0034
    CHARGE:  cpu time      0.8851: real time      0.8887
    MIXING:  cpu time      0.0383: real time      0.0384
    --------------------------------------------
      LOOP:  cpu time     15.3904: real time     15.4820

 eigenvalue-minimisations  :  8024
 total energy-change (2. order) :-0.5125103E+00  (-0.2127659E+00)
 number of electron     319.9999999 magnetization      -1.0526427
 augmentation part       -6.1353665 magnetization      -1.0955880

 Broyden mixing:
  rms(total) = 0.25072E+00    rms(broyden)= 0.25069E+00
  rms(prec ) = 0.32761E+00
  weight for this iteration     100.00

 eigenvalues of (default mixing * dielectric matrix)
  average eigenvalue GAMMA=   1.3259
  2.2080  1.0016  0.7682

 Free energy of the ion-electron system (eV)
  ---------------------------------------------------
  alpha Z        PSCENC =       360.01422175
  Ewald energy   TEWEN  =    -11647.32627473
  -Hartree energ DENC   =     -6901.32025823
  -exchange      EXHF   =         0.00000000
  -V(xc)+E(xc)   XCENC  =       481.89892015
  PAW double counting   =     11212.91886695   -10622.17636631
  entropy T*S    EENTRO =        -0.00000000
  eigenvalues    EBANDS =     -1148.11289113
  atomic energy  EATOM  =     17912.39994149
  Solvation  Ediel_sol  =         0.00000000
  ---------------------------------------------------
  free energy    TOTEN  =      -351.70384005 eV

  energy without entropy =     -351.70384005  energy(sigma->0) =     -351.70384005


--------------------------------------------------------------------------------------------------------




--------------------------------------- Iteration      1(   9)  ---------------------------------------


    POTLOK:  cpu time      0.9033: real time      0.9076
    SETDIJ:  cpu time      0.2792: real time      0.2799
     EDDAV:  cpu time     13.6651: real time     13.7517
       DOS:  cpu time      0.0033: real time      0.0033
    CHARGE:  cpu time      0.8876: real time      0.8913
    MIXING:  cpu time      0.0313: real time      0.0314
    --------------------------------------------
      LOOP:  cpu time     15.7698: real time     15.8651

 eigenvalue-minimisations  :  8304
 total energy-change (2. order) : 0.1567974E-01  (-0.3059882E-01)
 number of electron     319.9999999 magnetization      -0.5886294
 augmentation part       -6.1502195 magnetization      -0.5932106

 Broyden mixing:
  rms(total) = 0.10677E+00    rms(broyden)= 0.10677E+00
  rms(prec ) = 0.14415E+00
  weight for this iteration     100.00

 eigenvalues of (default mixing * dielectric matrix)
  average eigenvalue GAMMA=   1.2000
  2.2557  0.9125  0.9125  0.7192

 Free energy of the ion-electron system (eV)
  ---------------------------------------------------
  alpha Z        PSCENC =       360.01422175
  Ewald energy   TEWEN  =    -11647.32627473
  -Hartree energ DENC   =     -6930.76137673
  -exchange      EXHF   =         0.00000000
  -V(xc)+E(xc)   XCENC  =       484.05809856
  PAW double counting   =     11320.06867509   -10729.65265589
  entropy T*S    EENTRO =        -0.00000000
  eigenvalues    EBANDS =     -1120.48878986
  atomic energy  EATOM  =     17912.39994149
  Solvation  Ediel_sol  =         0.00000000
  ---------------------------------------------------
  free energy    TOTEN  =      -351.68816031 eV

  energy without entropy =     -351.68816031  energy(sigma->0) =     -351.68816031


--------------------------------------------------------------------------------------------------------




--------------------------------------- Iteration      1(  10)  ---------------------------------------


    POTLOK:  cpu time      0.8840: real time      0.8883
    SETDIJ:  cpu time      0.2752: real time      0.2758
     EDDAV:  cpu time     13.3517: real time     13.4374
       DOS:  cpu time      0.0112: real time      0.0112
    CHARGE:  cpu time      0.8951: real time      0.8990
    MIXING:  cpu time      0.0340: real time      0.0341
    --------------------------------------------
      LOOP:  cpu time     15.4513: real time     15.5457

 eigenvalue-minimisations  :  8048
 total energy-change (2. order) : 0.1324567E-02  (-0.2073850E-01)
 number of electron     319.9999999 magnetization      -0.0243553
 augmentation part       -6.2639264 magnetization      -0.0172552

 Broyden mixing:
  rms(total) = 0.57618E-01    rms(broyden)= 0.57585E-01
  rms(prec ) = 0.67633E-01
  weight for this iteration     100.00

 eigenvalues of (default mixing * dielectric matrix)
  average eigenvalue GAMMA=   1.3674
  2.5274  1.9084  0.8847  0.8847  0.6316

 Free energy of the ion-electron system (eV)
  ---------------------------------------------------
  alpha Z        PSCENC =       360.01422175
  Ewald energy   TEWEN  =    -11647.32627473
  -Hartree energ DENC   =     -6939.56358190
  -exchange      EXHF   =         0.00000000
  -V(xc)+E(xc)   XCENC  =       484.61650550
  PAW double counting   =     11325.25556087   -10734.93173357
  entropy T*S    EENTRO =        -0.00000000
  eigenvalues    EBANDS =     -1112.15147516
  atomic energy  EATOM  =     17912.39994149
  Solvation  Ediel_sol  =         0.00000000
  ---------------------------------------------------
  free energy    TOTEN  =      -351.68683574 eV

  energy without entropy =     -351.68683574  energy(sigma->0) =     -351.68683574


--------------------------------------------------------------------------------------------------------




--------------------------------------- Iteration      1(  11)  ---------------------------------------


    POTLOK:  cpu time      0.8997: real time      0.9039
    SETDIJ:  cpu time      0.2861: real time      0.2867
     EDDAV:  cpu time     14.1810: real time     14.2742
       DOS:  cpu time      0.0034: real time      0.0034
    CHARGE:  cpu time      0.8870: real time      0.8907
    MIXING:  cpu time      0.0327: real time      0.0328
    --------------------------------------------
      LOOP:  cpu time     16.2900: real time     16.3917

 eigenvalue-minimisations  :  8760
 total energy-change (2. order) :-0.8291864E-02  (-0.2715353E-02)
 number of electron     319.9999999 magnetization      -0.0412824
 augmentation part       -6.2779137 magnetization      -0.0384338

 Broyden mixing:
  rms(total) = 0.34443E-01    rms(broyden)= 0.34441E-01
  rms(prec ) = 0.44388E-01
  weight for this iteration     100.00

 eigenvalues of (default mixing * dielectric matrix)
  average eigenvalue GAMMA=   1.2506
  2.5689  1.9072  0.9437  0.7338  0.7338  0.6161

 Free energy of the ion-electron system (eV)
  ---------------------------------------------------
  alpha Z        PSCENC =       360.01422175
  Ewald energy   TEWEN  =    -11647.32627473
  -Hartree energ DENC   =     -6942.66986514
  -exchange      EXHF   =         0.00000000
  -V(xc)+E(xc)   XCENC  =       484.85342465
  PAW double counting   =     11316.07995605   -10725.73444663
  entropy T*S    EENTRO =        -0.00000000
  eigenvalues    EBANDS =     -1109.31208506
  atomic energy  EATOM  =     17912.39994149
  Solvation  Ediel_sol  =         0.00000000
  ---------------------------------------------------
  free energy    TOTEN  =      -351.69512761 eV

  energy without entropy =     -351.69512761  energy(sigma->0) =     -351.69512761


--------------------------------------------------------------------------------------------------------




--------------------------------------- Iteration      1(  12)  ---------------------------------------


    POTLOK:  cpu time      0.9005: real time      1.7152
    SETDIJ:  cpu time      0.2811: real time      0.2820
     EDDAV:  cpu time     13.8451: real time     13.9333
       DOS:  cpu time      0.0035: real time      0.0035
    CHARGE:  cpu time      0.8861: real time      0.8899
    MIXING:  cpu time      0.0345: real time      0.0346
    --------------------------------------------
      LOOP:  cpu time     15.9507: real time     16.8584

 eigenvalue-minimisations  :  8496
 total energy-change (2. order) : 0.1290543E-02  (-0.2901643E-03)
 number of electron     319.9999999 magnetization      -0.0187260
 augmentation part       -6.2695902 magnetization      -0.0178431

 Broyden mixing:
  rms(total) = 0.20057E-01    rms(broyden)= 0.20057E-01
  rms(prec ) = 0.26454E-01
  weight for this iteration     100.00

 eigenvalues of (default mixing * dielectric matrix)
  average eigenvalue GAMMA=   1.2691
  2.5970  1.8474  1.0601  1.0601  0.9826  0.7202  0.6163

 Free energy of the ion-electron system (eV)
  ---------------------------------------------------
  alpha Z        PSCENC =       360.01422175
  Ewald energy   TEWEN  =    -11647.32627473
  -Hartree energ DENC   =     -6942.38457084
  -exchange      EXHF   =         0.00000000
  -V(xc)+E(xc)   XCENC  =       484.84425346
  PAW double counting   =     11314.33242019   -10723.99050481
  entropy T*S    EENTRO =        -0.00000000
  eigenvalues    EBANDS =     -1109.58332359
  atomic energy  EATOM  =     17912.39994149
  Solvation  Ediel_sol  =         0.00000000
  ---------------------------------------------------
  free energy    TOTEN  =      -351.69383706 eV

  energy without entropy =     -351.69383706  energy(sigma->0) =     -351.69383706


--------------------------------------------------------------------------------------------------------




--------------------------------------- Iteration      1(  13)  ---------------------------------------


    POTLOK:  cpu time      0.9100: real time      0.9181
    SETDIJ:  cpu time      0.2798: real time      0.2806
     EDDAV:  cpu time     13.2873: real time     13.3754
       DOS:  cpu time      0.0033: real time      0.0033
    CHARGE:  cpu time      0.8880: real time      0.8917
    MIXING:  cpu time      0.0334: real time      0.0335
    --------------------------------------------
      LOOP:  cpu time     15.4019: real time     15.5026

 eigenvalue-minimisations  :  8032
 total energy-change (2. order) : 0.1446847E-03  (-0.5590819E-03)
 number of electron     319.9999999 magnetization       0.0205692
 augmentation part       -6.2491748 magnetization       0.0206790

 Broyden mixing:
  rms(total) = 0.47382E-02    rms(broyden)= 0.47254E-02
  rms(prec ) = 0.61632E-02
  weight for this iteration     100.00

 eigenvalues of (default mixing * dielectric matrix)
  average eigenvalue GAMMA=   1.3184
  2.7398  2.1126  1.5792  0.9211  0.9211  0.9625  0.6254  0.6859

 Free energy of the ion-electron system (eV)
  ---------------------------------------------------
  alpha Z        PSCENC =       360.01422175
  Ewald energy   TEWEN  =    -11647.32627473
  -Hartree energ DENC   =     -6942.26329749
  -exchange      EXHF   =         0.00000000
  -V(xc)+E(xc)   XCENC  =       484.83932302
  PAW double counting   =     11310.97635173   -10720.63192621
  entropy T*S    EENTRO =        -0.00000000
  eigenvalues    EBANDS =     -1109.70203194
  atomic energy  EATOM  =     17912.39994149
  Solvation  Ediel_sol  =         0.00000000
  ---------------------------------------------------
  free energy    TOTEN  =      -351.69369238 eV

  energy without entropy =     -351.69369238  energy(sigma->0) =     -351.69369238


--------------------------------------------------------------------------------------------------------




--------------------------------------- Iteration      1(  14)  ---------------------------------------


    POTLOK:  cpu time      0.8846: real time      0.8928
    SETDIJ:  cpu time      0.2848: real time      0.2853
     EDDAV:  cpu time     12.5291: real time     12.6092
       DOS:  cpu time      0.0034: real time      0.0034
    CHARGE:  cpu time      0.8884: real time      0.8922
    MIXING:  cpu time      0.0355: real time      0.0356
    --------------------------------------------
      LOOP:  cpu time     14.6257: real time     14.7185

 eigenvalue-minimisations  :  7344
 total energy-change (2. order) :-0.1977624E-03  (-0.3670007E-04)
 number of electron     319.9999999 magnetization       0.0095669
 augmentation part       -6.2477350 magnetization       0.0093993

 Broyden mixing:
  rms(total) = 0.28536E-02    rms(broyden)= 0.28529E-02
  rms(prec ) = 0.36993E-02
  weight for this iteration     100.00

 eigenvalues of (default mixing * dielectric matrix)
  average eigenvalue GAMMA=   1.3143
  2.8006  2.2706  1.7273  0.9754  0.9754  0.9124  0.8575  0.6243  0.6852

 Free energy of the ion-electron system (eV)
  ---------------------------------------------------
  alpha Z        PSCENC =       360.01422175
  Ewald energy   TEWEN  =    -11647.32627473
  -Hartree energ DENC   =     -6942.81689075
  -exchange      EXHF   =         0.00000000
  -V(xc)+E(xc)   XCENC  =       484.86956514
  PAW double counting   =     11308.72087828   -10718.38225909
  entropy T*S    EENTRO =        -0.00000000
  eigenvalues    EBANDS =     -1109.17307224
  atomic energy  EATOM  =     17912.39994149
  Solvation  Ediel_sol  =         0.00000000
  ---------------------------------------------------
  free energy    TOTEN  =      -351.69389014 eV

  energy without entropy =     -351.69389014  energy(sigma->0) =     -351.69389014


--------------------------------------------------------------------------------------------------------




--------------------------------------- Iteration      1(  15)  ---------------------------------------


    POTLOK:  cpu time      0.9050: real time      0.9093
    SETDIJ:  cpu time      0.2781: real time      0.2786
     EDDAV:  cpu time     14.3094: real time     14.4054
       DOS:  cpu time      0.0034: real time      0.0034
    CHARGE:  cpu time      0.8902: real time      0.8939
    MIXING:  cpu time      0.0423: real time      0.0424
    --------------------------------------------
      LOOP:  cpu time     16.4284: real time     16.5330

 eigenvalue-minimisations  :  8832
 total energy-change (2. order) :-0.9241980E-05  (-0.4687396E-05)
 number of electron     319.9999999 magnetization       0.0022404
 augmentation part       -6.2488986 magnetization       0.0020849

 Broyden mixing:
  rms(total) = 0.10854E-02    rms(broyden)= 0.10853E-02
  rms(prec ) = 0.13733E-02
  weight for this iteration     100.00

 eigenvalues of (default mixing * dielectric matrix)
  average eigenvalue GAMMA=   1.3473
  2.9143  2.4857  1.8685  1.1224  1.1224  0.9324  0.9324  0.7927  0.6238  0.6785

 Free energy of the ion-electron system (eV)
  ---------------------------------------------------
  alpha Z        PSCENC =       360.01422175
  Ewald energy   TEWEN  =    -11647.32627473
  -Hartree energ DENC   =     -6942.97624373
  -exchange      EXHF   =         0.00000000
  -V(xc)+E(xc)   XCENC  =       484.87542096
  PAW double counting   =     11308.29542347   -10717.95767370
  entropy T*S    EENTRO =        -0.00000000
  eigenvalues    EBANDS =     -1109.01871491
  atomic energy  EATOM  =     17912.39994149
  Solvation  Ediel_sol  =         0.00000000
  ---------------------------------------------------
  free energy    TOTEN  =      -351.69389938 eV

  energy without entropy =     -351.69389938  energy(sigma->0) =     -351.69389938


--------------------------------------------------------------------------------------------------------




--------------------------------------- Iteration      1(  16)  ---------------------------------------


    POTLOK:  cpu time      0.9075: real time      0.9175
    SETDIJ:  cpu time      0.2793: real time      0.2799
     EDDAV:  cpu time     13.4743: real time     13.5599
       DOS:  cpu time      0.0034: real time      0.0034
    CHARGE:  cpu time      0.8862: real time      0.8898
    MIXING:  cpu time      0.0353: real time      0.0354
    --------------------------------------------
      LOOP:  cpu time     15.5860: real time     15.6860

 eigenvalue-minimisations  :  8216
 total energy-change (2. order) :-0.3903297E-05  (-0.1797876E-05)
 number of electron     319.9999999 magnetization       0.0009975
 augmentation part       -6.2495835 magnetization       0.0009242

 Broyden mixing:
  rms(total) = 0.31696E-03    rms(broyden)= 0.31672E-03
  rms(prec ) = 0.38814E-03
  weight for this iteration     100.00

 eigenvalues of (default mixing * dielectric matrix)
  average eigenvalue GAMMA=   1.3416
  3.0611  2.5767  1.9284  1.2241  1.0631  1.0631  0.8890  0.8890  0.7762  0.6218
  0.6649

 Free energy of the ion-electron system (eV)
  ---------------------------------------------------
  alpha Z        PSCENC =       360.01422175
  Ewald energy   TEWEN  =    -11647.32627473
  -Hartree energ DENC   =     -6943.03195362
  -exchange      EXHF   =         0.00000000
  -V(xc)+E(xc)   XCENC  =       484.87729724
  PAW double counting   =     11308.05841741   -10717.72071380
  entropy T*S    EENTRO =        -0.00000000
  eigenvalues    EBANDS =     -1108.96483905
  atomic energy  EATOM  =     17912.39994149
  Solvation  Ediel_sol  =         0.00000000
  ---------------------------------------------------
  free energy    TOTEN  =      -351.69390329 eV

  energy without entropy =     -351.69390329  energy(sigma->0) =     -351.69390329


--------------------------------------------------------------------------------------------------------




--------------------------------------- Iteration      1(  17)  ---------------------------------------


    POTLOK:  cpu time      0.8860: real time      0.8953
    SETDIJ:  cpu time      0.2793: real time      0.2799
     EDDAV:  cpu time     10.1580: real time     10.2224
       DOS:  cpu time      0.0108: real time      0.0108
    --------------------------------------------
      LOOP:  cpu time     11.3341: real time     11.4084

 eigenvalue-minimisations  :  5496
 total energy-change (2. order) :-0.2350716E-06  (-0.1234216E-06)
 number of electron     319.9999999 magnetization       0.0009975
 augmentation part       -6.2495835 magnetization       0.0009242

 Free energy of the ion-electron system (eV)
  ---------------------------------------------------
  alpha Z        PSCENC =       360.01422175
  Ewald energy   TEWEN  =    -11647.32627473
  -Hartree energ DENC   =     -6943.05439242
  -exchange      EXHF   =         0.00000000
  -V(xc)+E(xc)   XCENC  =       484.87877118
  PAW double counting   =     11308.12723419   -10717.78985991
  entropy T*S    EENTRO =        -0.00000000
  eigenvalues    EBANDS =     -1108.94354507
  atomic energy  EATOM  =     17912.39994149
  Solvation  Ediel_sol  =         0.00000000
  ---------------------------------------------------
  free energy    TOTEN  =      -351.69390352 eV

  energy without entropy =     -351.69390352  energy(sigma->0) =     -351.69390352


--------------------------------------------------------------------------------------------------------




 average (electrostatic) potential at core
  the test charge radii are     1.0406  0.9406  0.7215
  (the norm of the test charge is              1.0000)
       1 -76.3240       2 -76.3240       3 -76.3240       4 -76.3240       5 -76.3240
       6 -76.3240       7 -76.3240       8 -76.3240       9 -76.3240      10 -76.3240
      11 -76.3240      12 -76.3240      13 -76.3240      14 -76.3240      15 -76.3240
      16 -76.3240      17 -76.3240      18 -76.3240      19 -76.3240      20 -76.3240
      21 -91.3089      22 -91.3089      23 -91.3089      24 -91.3089      25 -91.3089
      26 -91.3089      27 -91.3089      28 -91.3089      29 -91.3089      30 -91.3089
      31 -91.3089      32 -91.3089      33 -91.3089      34 -91.3089      35 -91.3089
      36 -91.3089      37 -91.3089      38 -91.3089      39 -91.3089      40 -91.3089
      41 -71.4540      42 -71.4539      43 -71.4540      44 -71.4540      45 -71.4540
      46 -71.4540      47 -71.4540      48 -71.4540      49 -71.4540      50 -71.4540
      51 -71.4540      52 -71.4539      53 -71.4540      54 -71.4540      55 -71.4540
      56 -71.4539      57 -71.4540      58 -71.4539      59 -71.4540      60 -71.4540
 
 
 
 E-fermi :   2.3945     XC(G=0):  -9.3596     alpha+bet :-10.9598

 val. band max:        2.1716898738   @ k =   0.5000   0.3333   0.5000
 cond. band min:       7.8239393992   @ k =   0.0000   0.0000   0.0000
 fundamental gap:      5.6522495253
 Fermi energy:         2.3944901193

 spin component 1

 k-point     1 :       0.0000    0.0000    0.0000
  band No.  band energies     occupation 
      1     -16.5895      1.00000
      2     -16.0386      1.00000
      3     -16.0386      1.00000
      4     -15.9606      1.00000
      5     -15.9606      1.00000
      6     -15.5738      1.00000
      7     -15.5738      1.00000
      8     -15.4865      1.00000
      9     -15.4865      1.00000
     10     -15.0003      1.00000
     11     -15.0003      1.00000
     12     -14.9099      1.00000
     13     -14.9099      1.00000
     14     -14.8094      1.00000
     15     -14.8094      1.00000
     16     -14.5952      1.00000
     17     -14.5952      1.00000
     18     -14.4901      1.00000
     19     -14.4901      1.00000
     20     -14.0597      1.00000
     21     -11.5242      1.00000
     22     -11.5158      1.00000
     23     -11.4777      1.00000
     24     -11.4777      1.00000
     25     -11.2754      1.00000
     26     -11.2754      1.00000
     27     -11.1892      1.00000
     28     -11.1892      1.00000
     29     -11.1884      1.00000
     30     -11.1884      1.00000
     31     -11.1776      1.00000
     32     -11.1776      1.00000
     33     -10.9879      1.00000
     34     -10.9879      1.00000
     35     -10.8693      1.00000
     36     -10.8693      1.00000
     37     -10.8678      1.00000
     38     -10.8678      1.00000
     39     -10.6925      1.00000
     40     -10.6925      1.00000
     41      -4.4733      1.00000
     42      -4.4733      1.00000
     43      -3.7061      1.00000
     44      -3.7061      1.00000
     45      -3.6923      1.00000
     46      -3.6923      1.00000
     47      -3.6123      1.00000
     48      -3.6123      1.00000
     49      -3.4497      1.00000
     50      -3.1298      1.00000
     51      -3.1298      1.00000
     52      -3.0166      1.00000
     53      -3.0166      1.00000
     54      -2.8995      1.00000
     55      -2.8995      1.00000
     56      -2.5806      1.00000
     57      -2.5806      1.00000
     58      -2.4876      1.00000
     59      -2.3266      1.00000
     60      -2.3266      1.00000
     61      -2.0930      1.00000
     62      -2.0930      1.00000
     63      -1.9114      1.00000
     64      -1.9114      1.00000
     65      -1.8199      1.00000
     66      -1.8199      1.00000
     67      -1.8197      1.00000
     68      -1.8197      1.00000
     69      -1.6804      1.00000
     70      -1.6804      1.00000
     71      -1.4920      1.00000
     72      -1.4293      1.00000
     73      -1.4293      1.00000
     74      -1.3905      1.00000
     75      -1.3905      1.00000
     76      -1.2401      1.00000
     77      -1.2401      1.00000
     78      -1.0570      1.00000
     79      -1.0570      1.00000
     80      -1.0551      1.00000
     81      -1.0551      1.00000
     82      -0.9235      1.00000
     83      -0.9235      1.00000
     84      -0.8571      1.00000
     85      -0.6196      1.00000
     86      -0.6196      1.00000
     87      -0.2646      1.00000
     88      -0.2646      1.00000
     89      -0.2016      1.00000
     90      -0.2016      1.00000
     91      -0.1750      1.00000
     92      -0.1750      1.00000
     93      -0.0982      1.00000
     94      -0.0982      1.00000
     95       0.0179      1.00000
     96       0.2521      1.00000
     97       0.2521      1.00000
     98       0.3021      1.00000
     99       0.3021      1.00000
    100       0.3033      1.00000
    101       0.3033      1.00000
    102       0.3161      1.00000
    103       0.3302      1.00000
    104       0.3302      1.00000
    105       0.3840      1.00000
    106       0.3840      1.00000
    107       0.5371      1.00000
    108       0.5371      1.00000
[...]
   -.101E-03 0.609E-05 0.941E+02   0.318E-13 0.615E-12 -.929E+02   0.661E-03 -.200E-02 -.125E+01   -.102E-04 0.103E-04 -.421E-05
   0.154E-03 -.120E-03 0.941E+02   0.303E-11 0.119E-11 -.929E+02   -.206E-02 -.272E-03 -.125E+01   -.188E-05 -.314E-04 -.195E-04
   -.172E-03 0.136E-03 0.941E+02   -.288E-11 0.479E-12 -.929E+02   0.205E-02 0.284E-03 -.125E+01   0.337E-04 0.157E-05 -.382E-04
   0.858E-04 -.116E-05 0.941E+02   -.247E-12 -.236E-11 -.929E+02   -.670E-03 0.199E-02 -.125E+01   0.291E-04 -.880E-05 -.566E-04
   0.110E-03 -.719E-06 -.941E+02   0.189E-11 -.863E-12 0.929E+02   -.649E-03 0.200E-02 0.125E+01   -.130E-04 -.154E-04 0.263E-04
   -.130E-04 0.146E-05 -.941E+02   -.191E-12 0.753E-12 0.929E+02   -.125E-04 -.705E-05 0.125E+01   0.237E-04 0.662E-05 0.311E-04
   -.958E-04 0.941E-05 -.941E+02   -.173E-11 0.802E-13 0.929E+02   0.661E-03 -.199E-02 0.125E+01   -.117E-04 0.778E-06 0.370E-04
   0.177E-03 -.126E-03 -.941E+02   0.256E-11 0.119E-11 0.929E+02   -.205E-02 -.278E-03 0.125E+01   -.355E-04 -.176E-04 0.445E-04
   -.120E-03 0.127E-03 -.941E+02   -.303E-11 0.995E-13 0.929E+02   0.210E-02 0.280E-03 0.125E+01   -.604E-04 0.149E-04 0.472E-04
   0.787E-04 -.265E-04 -.941E+02   0.190E-11 -.243E-11 0.929E+02   -.677E-03 0.199E-02 0.125E+01   0.457E-04 0.245E-04 0.111E-04
   -.165E-04 0.154E-04 -.941E+02   -.199E-12 0.758E-12 0.929E+02   -.100E-04 0.355E-05 0.125E+01   0.261E-04 -.211E-04 0.112E-04
   -.136E-03 0.743E-05 -.941E+02   -.130E-11 0.364E-12 0.929E+02   0.626E-03 -.199E-02 0.125E+01   0.586E-04 -.286E-06 0.312E-04
   0.160E-03 -.146E-03 -.941E+02   0.265E-11 0.160E-11 0.929E+02   -.206E-02 -.283E-03 0.125E+01   -.180E-04 0.862E-05 0.182E-04
   -.144E-03 0.137E-03 -.941E+02   -.269E-11 -.160E-11 0.929E+02   0.207E-02 0.284E-03 0.125E+01   -.159E-04 -.671E-06 0.218E-04
   0.623E-05 -.115E-04 0.252E+03   -.188E-11 0.582E-11 -.254E+03   -.914E-05 0.447E-03 0.268E+01   -.544E-05 0.108E-04 0.551E-03
   0.124E-04 0.128E-04 0.252E+03   -.252E-11 0.576E-11 -.254E+03   0.310E-04 0.126E-03 0.268E+01   -.648E-05 -.113E-04 0.548E-03
   0.587E-05 0.160E-04 0.252E+03   0.238E-13 -.142E-13 -.254E+03   0.318E-05 -.185E-05 0.268E+01   -.667E-05 -.125E-04 0.551E-03
   0.825E-05 -.129E-04 0.252E+03   -.222E-11 -.379E-12 -.254E+03   -.275E-04 -.124E-03 0.268E+01   -.127E-04 0.916E-05 0.533E-03
   0.479E-05 0.360E-05 0.252E+03   0.677E-11 -.112E-10 -.254E+03   0.109E-04 -.448E-03 0.268E+01   -.566E-05 -.195E-05 0.516E-03
   -.233E-05 0.123E-04 0.252E+03   0.202E-11 0.513E-11 -.254E+03   -.922E-05 0.445E-03 0.268E+01   0.175E-06 -.917E-05 0.534E-03
   0.113E-04 -.113E-04 0.252E+03   -.315E-11 0.930E-11 -.254E+03   0.242E-04 0.125E-03 0.268E+01   -.626E-06 0.115E-04 0.535E-03
   -.136E-04 -.916E-05 0.252E+03   0.195E-13 -.104E-13 -.254E+03   -.134E-05 -.523E-06 0.268E+01   0.127E-04 0.862E-05 0.507E-03
   -.337E-04 0.101E-04 0.252E+03   -.163E-11 -.391E-11 -.254E+03   -.256E-04 -.124E-03 0.268E+01   0.204E-04 -.111E-04 0.502E-03
   -.137E-04 -.246E-05 0.252E+03   0.284E-11 -.105E-10 -.254E+03   0.120E-04 -.448E-03 0.268E+01   0.920E-05 0.352E-05 0.481E-03
   0.604E-06 -.232E-04 -.252E+03   -.339E-11 -.304E-11 0.254E+03   -.276E-04 -.121E-03 -.268E+01   -.672E-05 0.149E-04 -.544E-03
   -.482E-05 0.408E-05 -.252E+03   0.779E-11 -.556E-11 0.254E+03   0.118E-04 -.447E-03 -.268E+01   0.165E-05 -.414E-05 -.535E-03
   0.859E-05 0.154E-04 -.252E+03   -.260E-11 0.151E-11 0.254E+03   -.140E-04 0.447E-03 -.268E+01   -.439E-05 -.140E-04 -.517E-03
   0.277E-04 -.947E-05 -.252E+03   -.187E-11 0.719E-11 0.254E+03   0.288E-04 0.126E-03 -.268E+01   -.181E-04 0.755E-05 -.514E-03
   0.362E-04 -.153E-05 -.252E+03   -.102E-13 0.899E-14 0.254E+03   -.279E-06 0.788E-06 -.268E+01   -.291E-04 0.686E-06 -.500E-03
   -.100E-04 0.201E-05 -.252E+03   -.685E-11 -.104E-11 0.254E+03   -.246E-04 -.125E-03 -.268E+01   -.158E-06 -.265E-05 -.526E-03
   -.325E-04 -.333E-05 -.252E+03   0.794E-11 -.104E-10 0.254E+03   0.147E-04 -.443E-03 -.268E+01   0.232E-04 -.971E-06 -.561E-03
   -.300E-04 -.703E-05 -.252E+03   -.273E-11 0.633E-11 0.254E+03   -.121E-04 0.447E-03 -.268E+01   0.270E-04 0.631E-05 -.522E-03
   -.624E-05 -.810E-05 -.252E+03   0.159E-11 0.520E-11 0.254E+03   0.257E-04 0.127E-03 -.268E+01   0.129E-04 0.703E-05 -.530E-03
   0.288E-05 0.626E-05 -.252E+03   -.178E-13 -.142E-13 0.254E+03   0.175E-05 0.187E-05 -.268E+01   -.366E-05 -.646E-05 -.550E-03
   -.256E-04 -.294E-04 0.104E+03   -.302E-11 -.230E-10 -.110E+03   -.565E-03 -.144E-03 0.553E+01   -.376E-05 0.154E-04 -.219E-03
   -.435E-04 0.144E-04 0.104E+03   0.172E-11 -.137E-10 -.110E+03   0.170E-02 -.414E-03 0.553E+01   0.232E-04 -.304E-05 -.240E-03
   -.142E-04 -.406E-05 0.104E+03   -.881E-12 0.204E-10 -.110E+03   -.172E-02 0.418E-03 0.553E+01   0.337E-04 -.869E-05 -.223E-03
   0.199E-04 0.783E-05 0.104E+03   0.226E-11 0.162E-10 -.110E+03   0.562E-03 0.136E-03 0.553E+01   0.966E-05 0.825E-05 -.214E-03
   0.208E-04 0.105E-04 0.104E+03   0.320E-11 -.355E-11 -.110E+03   0.799E-05 0.921E-05 0.553E+01   -.220E-04 -.134E-04 -.220E-03
   -.171E-04 -.229E-04 0.104E+03   -.132E-11 -.183E-10 -.110E+03   -.561E-03 -.153E-03 0.553E+01   -.149E-04 0.113E-04 -.211E-03
   -.235E-04 0.171E-04 0.104E+03   0.158E-11 -.140E-10 -.110E+03   0.171E-02 -.418E-03 0.553E+01   0.414E-05 -.430E-05 -.198E-03
   0.172E-04 0.236E-05 0.104E+03   -.228E-11 0.217E-10 -.110E+03   -.172E-02 0.432E-03 0.553E+01   0.531E-05 -.185E-04 -.219E-03
   0.391E-04 0.122E-04 0.104E+03   -.110E-11 0.140E-10 -.110E+03   0.576E-03 0.136E-03 0.553E+01   -.685E-05 0.367E-05 -.226E-03
   0.347E-04 -.183E-05 0.104E+03   -.293E-13 -.555E-13 -.110E+03   0.208E-04 -.403E-06 0.553E+01   -.349E-04 0.133E-05 -.213E-03
   0.311E-04 -.178E-04 -.104E+03   -.984E-11 0.114E-10 0.110E+03   -.171E-02 0.428E-03 -.553E+01   -.107E-04 0.108E-05 0.247E-03
   0.402E-04 0.174E-04 -.104E+03   0.226E-10 0.108E-10 0.110E+03   0.569E-03 0.135E-03 -.553E+01   -.867E-05 0.111E-06 0.252E-03
   -.188E-04 0.630E-05 -.104E+03   0.112E-11 -.330E-11 0.110E+03   -.527E-05 -.818E-05 -.553E+01   0.183E-04 -.247E-05 0.216E-03
   -.540E-04 0.388E-05 -.104E+03   -.220E-10 -.145E-10 0.110E+03   -.582E-03 -.131E-03 -.553E+01   0.244E-04 -.206E-04 0.222E-03
   -.286E-04 -.505E-05 -.104E+03   0.817E-11 -.425E-11 0.110E+03   0.171E-02 -.421E-03 -.553E+01   0.692E-05 0.169E-04 0.224E-03
   0.242E-04 -.361E-04 -.104E+03   -.114E-10 0.104E-10 0.110E+03   -.170E-02 0.408E-03 -.553E+01   -.486E-05 0.255E-04 0.230E-03
   0.389E-04 0.212E-04 -.104E+03   0.194E-10 0.109E-10 0.110E+03   0.573E-03 0.150E-03 -.553E+01   -.834E-05 -.956E-05 0.225E-03
   -.795E-05 0.104E-04 -.104E+03   0.112E-11 -.329E-11 0.110E+03   0.190E-05 0.528E-05 -.553E+01   0.775E-05 -.112E-04 0.248E-03
   -.210E-04 -.111E-04 -.104E+03   -.189E-10 -.145E-10 0.110E+03   -.565E-03 -.149E-03 -.553E+01   -.892E-05 0.141E-06 0.242E-03
   -.124E-04 0.894E-05 -.104E+03   0.976E-11 -.332E-11 0.110E+03   0.171E-02 -.418E-03 -.553E+01   -.842E-05 0.289E-05 0.235E-03
 -----------------------------------------------------------------------------------------------
   -.234E-04 -.133E-04 -.148E-03   -.297E-13 -.219E-14 0.412E-12   0.132E-04 0.102E-04 -.501E-04   0.854E-05 0.405E-06 0.208E-03
 
 
 POSITION                                       TOTAL-FORCE (eV/Angst)
 -----------------------------------------------------------------------------------
      2.74463     16.64380     -0.83341         0.000000      0.000004     -0.006514
      2.74463     19.81404     -0.83341         0.000553     -0.001985     -0.003428
      2.74463      7.13306      7.16634        -0.001912     -0.000419     -0.004876
      2.74463     10.30330      7.16634         0.001916      0.000418     -0.004877
     -0.91488      7.13306     -0.83341        -0.000552      0.001983     -0.003432
     -0.91488     10.30330     -0.83341        -0.000002      0.000001     -0.006513
     -0.91488     13.47355     -0.83341         0.000551     -0.001981     -0.003428
      2.74463      7.13306     -0.83341        -0.001913     -0.000423     -0.004880
      2.74463     10.30330     -0.83341         0.001913      0.000421     -0.004884
      2.74463     13.47355     -0.83341        -0.000555      0.001982     -0.003436
      0.91488      2.37769      0.83341        -0.000552      0.001981      0.003433
      0.91488      5.54793      0.83341        -0.000002      0.000001      0.006516
      0.91488      8.71818      0.83341         0.000553     -0.001983      0.003432
      0.91488     11.88843      0.83341        -0.001909     -0.000421      0.004883
      0.91488     15.05867      0.83341         0.001917      0.000422      0.004883
      4.57438      8.71818      0.83341        -0.000552      0.001985      0.003429
      4.57438     11.88843      0.83341        -0.000000     -0.000002      0.006510
      4.57438     15.05867      0.83341         0.000549     -0.001983      0.003432
      0.91488     11.88843     -7.16634        -0.001916     -0.000421      0.004880
      0.91488     15.05867     -7.16634         0.001913      0.000421      0.004878
      2.74463     18.22892     -2.52165        -0.000008      0.000446      0.117186
      2.74463      5.54793      5.47810         0.000037      0.000127      0.116374
      2.74463      8.71818      5.47810         0.000002      0.000002      0.116931
      2.74463     11.88843      5.47810        -0.000032     -0.000128      0.116377
     -0.91488      8.71818     -2.52165         0.000010     -0.000447      0.117198
     -0.91488     11.88843     -2.52165        -0.000011      0.000448      0.117191
      2.74463      5.54793     -2.52165         0.000035      0.000125      0.116371
      2.74463      8.71818     -2.52165        -0.000002     -0.000001      0.116946
      2.74463     11.88843     -2.52165        -0.000039     -0.000125      0.116385
      2.74463     15.05867     -2.52165         0.000007     -0.000447      0.117207
      0.91488     16.64380     -5.47810        -0.000034     -0.000129     -0.116375
      0.91488      3.96281      2.52165         0.000009     -0.000447     -0.117196
      0.91488      7.13306      2.52165        -0.000010      0.000449     -0.117198
      0.91488     10.30330      2.52165         0.000038      0.000124     -0.116381
      0.91488     13.47355      2.52165         0.000007     -0.000000     -0.116948
      0.91488     16.64380      2.52165        -0.000035     -0.000125     -0.116380
      4.57438     10.30330      2.52165         0.000005     -0.000447     -0.117186
      4.57438     13.47355      2.52165        -0.000015      0.000446     -0.117195
      0.91488     10.30330     -5.47810         0.000032      0.000126     -0.116378
      0.91488     13.47355     -5.47810         0.000001      0.000002     -0.116935
      0.91488     16.64380     -0.39227        -0.000595     -0.000158      0.047168
      4.57438     10.30330     -0.39227         0.001677     -0.000403      0.047204
      4.57438     13.47355     -0.39227        -0.001705      0.000405      0.047212
      4.57438     16.64380     -0.39227         0.000592      0.000152      0.047165
      0.91488     13.47355      7.60747         0.000007      0.000006      0.047297
     -2.74463     10.30330     -0.39227        -0.000593     -0.000165      0.047161
      0.91488      3.96281     -0.39227         0.001686     -0.000405      0.047209
      0.91488      7.13306     -0.39227        -0.001693      0.000416      0.047212
      0.91488     10.30330     -0.39227         0.000608      0.000152      0.047170
      0.91488     13.47355     -0.39227         0.000021     -0.000001      0.047310
     -0.91488     11.88843      0.39227        -0.001688      0.000411     -0.047211
      2.74463      5.54793      0.39227         0.000601      0.000152     -0.047164
      2.74463      8.71818      0.39227        -0.000006     -0.000004     -0.047306
      2.74463     11.88843      0.39227        -0.000611     -0.000147     -0.047171
      2.74463     15.05867      0.39227         0.001684     -0.000409     -0.047220
      2.74463     18.22892      0.39227        -0.001685      0.000397     -0.047201
      6.40413     11.88843      0.39227         0.000603      0.000161     -0.047163
      2.74463      8.71818     -7.60747         0.000002      0.000005     -0.047295
     -0.91488      5.54793      0.39227        -0.000595     -0.000160     -0.047166
     -0.91488      8.71818      0.39227         0.001691     -0.000406     -0.047213
 -----------------------------------------------------------------------------------
    total drift:                               -0.000002     -0.000003      0.000011


--------------------------------------------------------------------------------------------------------



  FREE ENERGIE OF THE ION-ELECTRON SYSTEM (eV)
  ---------------------------------------------------
  free  energy   TOTEN  =      -351.69390352 eV

  energy  without entropy=     -351.69390352  energy(sigma->0) =     -351.69390352
 


--------------------------------------------------------------------------------------------------------


    POTLOK:  cpu time      1.1804: real time      1.1858


--------------------------------------------------------------------------------------------------------


 writing wavefunctions
     LOOP+:  cpu time    276.3532: real time    279.3045
    4ORBIT:  cpu time      0.0000: real time      0.0000



 total charge

# of ion       s       p       d       tot
------------------------------------------
    1        0.304   0.358   0.000   0.661
    2        0.304   0.358   0.000   0.661
    3        0.304   0.358   0.000   0.661
    4        0.304   0.358   0.000   0.661
    5        0.304   0.358   0.000   0.661
    6        0.304   0.358   0.000   0.661
    7        0.304   0.358   0.000   0.661
    8        0.304   0.358   0.000   0.661
    9        0.304   0.358   0.000   0.661
   10        0.304   0.358   0.000   0.661
   11        0.304   0.358   0.000   0.661
   12        0.304   0.358   0.000   0.661
   13        0.304   0.358   0.000   0.661
   14        0.304   0.358   0.000   0.661
   15        0.304   0.358   0.000   0.661
   16        0.304   0.358   0.000   0.661
   17        0.304   0.358   0.000   0.661
   18        0.304   0.358   0.000   0.661
   19        0.304   0.358   0.000   0.661
   20        0.304   0.358   0.000   0.661
   21        1.602   3.576   0.000   5.178
   22        1.602   3.576   0.000   5.178
   23        1.602   3.576   0.000   5.178
   24        1.602   3.576   0.000   5.178
   25        1.602   3.576   0.000   5.178
   26        1.602   3.576   0.000   5.178
   27        1.602   3.576   0.000   5.178
   28        1.602   3.576   0.000   5.178
   29        1.602   3.576   0.000   5.178
   30        1.602   3.576   0.000   5.178
   31        1.602   3.576   0.000   5.178
   32        1.602   3.576   0.000   5.178
   33        1.602   3.576   0.000   5.178
   34        1.602   3.576   0.000   5.178
   35        1.602   3.576   0.000   5.178
   36        1.602   3.576   0.000   5.178
   37        1.602   3.576   0.000   5.178
   38        1.602   3.576   0.000   5.178
   39        1.602   3.576   0.000   5.178
   40        1.602   3.576   0.000   5.178
   41        1.551   3.604   0.000   5.155
   42        1.551   3.604   0.000   5.155
   43        1.551   3.604   0.000   5.155
   44        1.551   3.604   0.000   5.155
   45        1.551   3.604   0.000   5.155
   46        1.551   3.604   0.000   5.155
   47        1.551   3.604   0.000   5.155
   48        1.551   3.604   0.000   5.155
   49        1.551   3.604   0.000   5.155
   50        1.551   3.604   0.000   5.155
   51        1.551   3.604   0.000   5.155
   52        1.551   3.604   0.000   5.155
   53        1.551   3.604   0.000   5.155
   54        1.551   3.604   0.000   5.155
   55        1.551   3.604   0.000   5.155
   56        1.551   3.604   0.000   5.155
   57        1.551   3.604   0.000   5.155
   58        1.551   3.604   0.000   5.155
   59        1.551   3.604   0.000   5.155
   60        1.551   3.604   0.000   5.155
--------------------------------------------------
tot         69.124 150.766   0.000 219.890



 magnetization (x)

# of ion       s       p       d       tot
------------------------------------------
    1       -0.000  -0.000   0.000  -0.000
    2       -0.000  -0.000   0.000  -0.000
    3       -0.000  -0.000   0.000  -0.000
    4       -0.000  -0.000   0.000  -0.000
    5       -0.000  -0.000   0.000  -0.000
    6       -0.000  -0.000   0.000  -0.000
    7       -0.000  -0.000   0.000  -0.000
    8       -0.000  -0.000   0.000  -0.000
    9       -0.000  -0.000   0.000  -0.000
   10       -0.000  -0.000   0.000  -0.000
   11       -0.000  -0.000   0.000  -0.000
   12       -0.000  -0.000   0.000  -0.000
   13       -0.000  -0.000   0.000  -0.000
   14       -0.000  -0.000   0.000  -0.000
   15       -0.000  -0.000   0.000  -0.000
   16       -0.000  -0.000   0.000  -0.000
   17       -0.000  -0.000   0.000  -0.000
   18       -0.000  -0.000   0.000  -0.000
   19       -0.000  -0.000   0.000  -0.000
   20       -0.000  -0.000   0.000  -0.000
   21       -0.000  -0.000   0.000  -0.000
   22       -0.000  -0.000   0.000  -0.000
   23       -0.000  -0.000   0.000  -0.000
   24       -0.000  -0.000   0.000  -0.000
   25       -0.000  -0.000   0.000  -0.000
   26       -0.000  -0.000   0.000  -0.000
   27       -0.000  -0.000   0.000  -0.000
   28       -0.000  -0.000   0.000  -0.000
   29       -0.000  -0.000   0.000  -0.000
   30       -0.000  -0.000   0.000  -0.000
   31       -0.000  -0.000   0.000  -0.000
   32       -0.000  -0.000   0.000  -0.000
   33       -0.000  -0.000   0.000  -0.000
   34       -0.000  -0.000   0.000  -0.000
   35       -0.000  -0.000   0.000  -0.000
   36       -0.000  -0.000   0.000  -0.000
   37       -0.000  -0.000   0.000  -0.000
   38       -0.000  -0.000   0.000  -0.000
   39       -0.000  -0.000   0.000  -0.000
   40       -0.000  -0.000   0.000  -0.000
   41       -0.000  -0.000   0.000  -0.000
   42        0.000  -0.000   0.000  -0.000
   43       -0.000  -0.000   0.000  -0.000
   44       -0.000  -0.000   0.000  -0.000
   45        0.000  -0.000   0.000  -0.000
   46        0.000  -0.000   0.000  -0.000
   47       -0.000  -0.000   0.000  -0.000
   48       -0.000  -0.000   0.000  -0.000
   49       -0.000  -0.000   0.000  -0.000
   50       -0.000  -0.000   0.000  -0.000
   51        0.000  -0.000   0.000  -0.000
   52        0.000  -0.000   0.000  -0.000
   53       -0.000  -0.000   0.000  -0.000
   54       -0.000  -0.000   0.000  -0.000
   55       -0.000  -0.000   0.000  -0.000
   56        0.000  -0.000   0.000  -0.000
   57        0.000  -0.000   0.000  -0.000
   58        0.000  -0.000   0.000  -0.000
   59        0.000  -0.000   0.000  -0.000
   60       -0.000  -0.000   0.000  -0.000
--------------------------------------------------
tot         -0.000  -0.000   0.000  -0.000
 

 total amount of memory used by VASP MPI-rank0   285697. kBytes
=======================================================================

   base      :      30000. kBytes
   nonlr-proj:       6928. kBytes
   fftplans  :      21342. kBytes
   grid      :      56099. kBytes
   one-center:         49. kBytes
   wavefun   :     171279. kBytes
 
  
  
 General timing and accounting informations for this job:
 ========================================================
  
                  Total CPU time used (sec):      305.205
                            User time (sec):      282.405
                          System time (sec):       22.800
                         Elapsed time (sec):      310.896
  
                   Maximum memory used (kb):      607248.
                   Average memory used (kb):          N/A
  
                          Minor page faults:        64557
                          Major page faults:            0
                 Voluntary context switches:        17371
