<?xml version="1.0" encoding="ISO-8859-1"?>
<modeling>
 <generator>
  <i name="program" type="string">vasp </i>
  <i name="version" type="string">6.4.3  </i>
  <i name="subversion" type="string">19Mar24 (build Oct 16 2024 18:29:25) complex                          parallel </i>
  <i name="platform" type="string">LinuxIFC </i>
  <i name="date" type="string">2025 08 12 </i>
  <i name="time" type="string">16:01:44 </i>
 </generator>
 <incar>
  <i type="string" name="PREC">Accurate</i>
  <i type="string" name="ALGO">Fast</i>
  <i type="int" name="ISPIN">     2</i>
  <i type="int" name="NELM">   100</i>
  <i type="int" name="IBRION">     2</i>
  <i name="EDIFF">      0.00050000</i>
  <i type="int" name="NSW">    99</i>
  <i type="int" name="ISIF">     3</i>
  <i name="ENCUT">    520.00000000</i>
  <v name="MAGMOM">      0.60000000      0.60000000      0.60000000      0.60000000      0.60000000      0.60000000      0.60000000      0.60000000      0.60000000      0.60000000</v>
  <i type="string" name="LREAL">Auto</i>
  <i type="int" name="ISMEAR">    -5</i>
  <i name="SIGMA">      0.05000000</i>
  <i type="logical" name="LWAVE"> F  </i>
  <i type="int" name="LORBIT">    11</i>
  <i type="logical" name="LASPH"> T  </i>
 </incar>
 <primitive_cell>
  <structure name="primitive_cell" >
   <crystal>
    <varray name="basis" >
     <v>       4.58684500      -2.40251400       0.00000000 </v>
     <v>       4.58684500       2.40251400       0.00000000 </v>
     <v>       3.32844800       0.00000000       3.96644100 </v>
    </varray>
    <i name="volume">     87.42003700 </i>
    <varray name="rec_basis" >
     <v>       0.10900739      -0.20811533      -0.09147380 </v>
     <v>       0.10900739       0.20811533      -0.09147380 </v>
     <v>       0.00000000       0.00000000       0.25211518 </v>
    </varray>
   </crystal>
   <varray name="positions" >
    <v>       0.14790400       0.14790400       0.14790400 </v>
    <v>       0.35209600       0.35209600       0.35209600 </v>
    <v>       0.64790400       0.64790400       0.64790400 </v>
    <v>       0.85209600       0.85209600       0.85209600 </v>
    <v>       0.55614600       0.94385400       0.25000000 </v>
    <v>       0.75000000       0.44385400       0.05614600 </v>
    <v>       0.25000000       0.55614600       0.94385400 </v>
    <v>       0.94385400       0.25000000       0.55614600 </v>
    <v>       0.05614600       0.75000000       0.44385400 </v>
    <v>       0.44385400       0.05614600       0.75000000 </v>
   </varray>
  </structure>
  <varray name="primitive_index" >
   <v type="int" >        1 </v>
   <v type="int" >        2 </v>
   <v type="int" >        3 </v>
   <v type="int" >        4 </v>
   <v type="int" >        5 </v>
   <v type="int" >        6 </v>
   <v type="int" >        7 </v>
   <v type="int" >        8 </v>
   <v type="int" >        9 </v>
   <v type="int" >       10 </v>
  </varray>
 </primitive_cell>
 <kpoints>
  <generation param="Gamma">
   <v type="int" name="divisions">       5        5        5 </v>
   <v name="usershift">      0.00000000       0.00000000       0.00000000 </v>
   <v name="genvec1">      0.20000000      -0.00000000       0.00000000 </v>
   <v name="genvec2">     -0.00000000       0.20000000       0.00000000 </v>
   <v name="genvec3">      0.00000000       0.00000000       0.20000000 </v>
   <v name="shift">      0.00000000       0.00000000       0.00000000 </v>
  </generation>
  <varray name="kpointlist" >
   <v>       0.00000000       0.00000000       0.00000000 </v>
   <v>       0.20000000       0.00000000       0.00000000 </v>
   <v>       0.40000000       0.00000000       0.00000000 </v>
   <v>       0.20000000       0.20000000       0.00000000 </v>
   <v>       0.40000000       0.20000000       0.00000000 </v>
   <v>      -0.40000000       0.20000000       0.00000000 </v>
   <v>      -0.20000000       0.20000000       0.00000000 </v>
   <v>       0.40000000       0.40000000       0.00000000 </v>
   <v>      -0.40000000       0.40000000       0.00000000 </v>
   <v>       0.20000000       0.20000000       0.20000000 </v>
   <v>       0.40000000       0.20000000       0.20000000 </v>
   <v>      -0.40000000       0.20000000       0.20000000 </v>
   <v>      -0.20000000       0.20000000       0.20000000 </v>
   <v>       0.40000000       0.40000000       0.20000000 </v>
   <v>      -0.40000000       0.40000000       0.20000000 </v>
   <v>      -0.20000000       0.40000000       0.20000000 </v>
   <v>      -0.40000000      -0.40000000       0.20000000 </v>
   <v>       0.40000000       0.40000000       0.40000000 </v>
   <v>      -0.40000000       0.40000000       0.40000000 </v>
  </varray>
  <varray name="weights" >
   <v>       0.00800000 </v>
   <v>       0.04800000 </v>
   <v>       0.04800000 </v>
   <v>       0.04800000 </v>
   <v>       0.09600000 </v>
   <v>       0.09600000 </v>
   <v>       0.04800000 </v>
   <v>       0.04800000 </v>
   <v>       0.04800000 </v>
   <v>       0.01600000 </v>
   <v>       0.04800000 </v>
   <v>       0.04800000 </v>
   <v>       0.04800000 </v>
   <v>       0.04800000 </v>
   <v>       0.09600000 </v>
   <v>       0.09600000 </v>
   <v>       0.04800000 </v>
   <v>       0.01600000 </v>
   <v>       0.04800000 </v>
  </varray>
  <varray name="tetrahedronlist"  type="int" >
   <v type="int" >       12       10       11       14       18 </v>
   <v type="int" >       12       11       14       15       19 </v>
   <v type="int" >       12       11       12       15       19 </v>
   <v type="int" >       12       11       14       18       19 </v>
   <v type="int" >       12       12       15       16       17 </v>
   <v type="int" >       12       12       13       16       17 </v>
   <v type="int" >       12       12       15       17       19 </v>
   <v type="int" >       12        5        8       13       16 </v>
   <v type="int" >       12        4        5        8       13 </v>
   <v type="int" >       12        8       13       16       17 </v>
   <v type="int" >       12        4        5       11       14 </v>
   <v type="int" >       12        4       10       11       14 </v>
   <v type="int" >       12        4        5        8       14 </v>
   <v type="int" >       12       14       15       17       19 </v>
   <v type="int" >       12       14       15       19       19 </v>
   <v type="int" >       12       14       18       19       19 </v>
   <v type="int" >       12       15       15       16       17 </v>
   <v type="int" >        6       15       15       16       16 </v>
   <v type="int" >       12       15       15       17       19 </v>
   <v type="int" >        6       15       15       19       19 </v>
   <v type="int" >       12        6        9       16       16 </v>
   <v type="int" >       12        5        6        9       16 </v>
   <v type="int" >       12        5        8        9       16 </v>
   <v type="int" >       12        9       15       16       16 </v>
   <v type="int" >       12        9       15       16       17 </v>
   <v type="int" >       12        8        9       16       17 </v>
   <v type="int" >       12        5        6       12       15 </v>
   <v type="int" >       12        5       11       12       15 </v>
   <v type="int" >       12        5       11       14       15 </v>
   <v type="int" >       12        5        6        9       15 </v>
   <v type="int" >       12        5        8        9       15 </v>
   <v type="int" >       12        5        8       14       15 </v>
   <v type="int" >       12        6        7       13       16 </v>
   <v type="int" >       12        6        6        7       16 </v>
   <v type="int" >       12        6        6        9       16 </v>
   <v type="int" >       12        6       12       13       16 </v>
   <v type="int" >       12        6       12       15       16 </v>
   <v type="int" >       12        6        9       15       16 </v>
   <v type="int" >       12        2        3        7       13 </v>
   <v type="int" >       12        3        6        7       13 </v>
   <v type="int" >       12        3        6       12       13 </v>
   <v type="int" >       12        2        4        5        7 </v>
   <v type="int" >       12        4        5        7       13 </v>
   <v type="int" >       12        5        7       13       16 </v>
   <v type="int" >       12        2        3        5        7 </v>
   <v type="int" >       12        3        5        6        7 </v>
   <v type="int" >       12        5        6        7       16 </v>
   <v type="int" >       12        2        4       10       11 </v>
   <v type="int" >       12        2        4        5       11 </v>
   <v type="int" >       12        2        3        5       11 </v>
   <v type="int" >        6       18       18       19       19 </v>
   <v type="int" >       12        8        9       15       17 </v>
   <v type="int" >       12        8        8        9       17 </v>
   <v type="int" >       12        8       14       15       17 </v>
   <v type="int" >       12        3        3        6       12 </v>
   <v type="int" >       12        3        5        6       12 </v>
   <v type="int" >       12        3        5       11       12 </v>
   <v type="int" >       12        3        5        6        6 </v>
   <v type="int" >       12        5        6        6       16 </v>
   <v type="int" >        6        6        6       16       16 </v>
   <v type="int" >        6        3        3        6        6 </v>
   <v type="int" >       12        1        2        4       10 </v>
   <v type="int" >       12        2        2        4        7 </v>
   <v type="int" >       12        2        4        7       13 </v>
   <v type="int" >       12        1        2        2        4 </v>
  </varray>
  <i name="volumeweight">      0.00133333 </i>
 </kpoints>
 <parameters>
  <separator name="general" >
   <i type="string" name="SYSTEM">unknown system</i>
   <i type="logical" name="LCOMPAT"> F  </i>
  </separator>
  <separator name="electronic" >
   <i type="string" name="PREC">accura</i>
   <i name="ENMAX">    520.00000000</i>
   <i name="ENAUG">    605.39200000</i>
   <i name="EDIFF">      0.00050000</i>
   <i type="int" name="IALGO">    68</i>
   <i type="int" name="IWAVPR">    11</i>
   <i type="int" name="NBANDS">    64</i>
   <i type="int" name="NBANDSLOW">    -1</i>
   <i type="int" name="NBANDSHIGH">    -1</i>
   <i name="NELECT">     48.00000000</i>
   <i type="int" name="TURBO">     0</i>
   <i type="int" name="IRESTART">     0</i>
   <i type="int" name="NREBOOT">     0</i>
   <i type="int" name="NMIN">     0</i>
   <i name="EREF">      0.00000000</i>
   <separator name="electronic smearing" >
    <i type="int" name="ISMEAR">    -5</i>
    <i name="SIGMA">      0.05000000</i>
    <i name="KSPACING">      0.50000000</i>
    <i type="logical" name="KGAMMA"> T  </i>
    <i type="logical" name="KBLOWUP"> T  </i>
   </separator>
   <separator name="electronic projectors" >
    <i type="logical" name="LREAL"> T  </i>
    <v name="ROPT">     -0.00025000     -0.00025000</v>
    <i type="int" name="LMAXPAW">  -100</i>
    <i type="int" name="LMAXMIX">     2</i>
    <i type="logical" name="NLSPLINE"> F  </i>
   </separator>
   <separator name="electronic startup" >
    <i type="int" name="ISTART">     0</i>
    <i type="int" name="ICHARG">     2</i>
    <i type="int" name="INIWAV">     1</i>
   </separator>
   <separator name="electronic spin" >
    <i type="int" name="ISPIN">     2</i>
    <i type="logical" name="LNONCOLLINEAR"> F  </i>
    <v name="MAGMOM">      0.60000000      0.60000000      0.60000000      0.60000000      0.60000000      0.60000000      0.60000000      0.60000000      0.60000000      0.60000000</v>
    <i name="NUPDOWN">     -1.00000000</i>
    <i type="logical" name="LSORBIT"> F  </i>
    <v name="SAXIS">      0.00000000      0.00000000      1.00000000</v>
    <i type="logical" name="LSPIRAL"> F  </i>
    <v name="QSPIRAL">      0.00000000      0.00000000      0.00000000</v>
    <i type="logical" name="LZEROZ"> F  </i>
   </separator>
   <separator name="electronic exchange-correlation" >
    <i type="logical" name="LASPH"> T  </i>
   </separator>
   <separator name="electronic convergence" >
    <i type="int" name="NELM">   100</i>
    <i type="int" name="NELMDL">    -5</i>
    <i type="int" name="NELMIN">     2</i>
    <i name="ENINI">    520.00000000</i>
    <separator name="electronic convergence detail" >
     <i type="logical" name="LDIAG"> T  </i>
     <i type="logical" name="LSUBROT"> F  </i>
     <i name="WEIMIN">      0.00100000</i>
     <i name="EBREAK">      0.00000195</i>
     <i name="DEPER">      0.30000000</i>
     <i type="int" name="NRMM">     4</i>
     <i name="TIME">      0.40000000</i>
    </separator>
   </separator>
   <separator name="electronic mixer" >
    <i name="AMIX">      0.40000000</i>
    <i name="BMIX">      1.00000000</i>
    <i name="AMIN">      0.10000000</i>
    <i name="AMIX_MAG">      1.60000000</i>
    <i name="BMIX_MAG">      1.00000000</i>
    <separator name="electronic mixer details" >
     <i type="int" name="IMIX">     4</i>
     <i type="logical" name="MIXFIRST"> F  </i>
     <i type="int" name="MAXMIX">   -45</i>
     <i name="WC">    100.00000000</i>
     <i type="int" name="INIMIX">     1</i>
     <i type="int" name="MIXPRE">     1</i>
     <i type="int" name="MREMOVE">     5</i>
    </separator>
   </separator>
   <separator name="electronic dipolcorrection" >
    <i type="logical" name="LDIPOL"> F  </i>
    <i type="logical" name="LMONO"> F  </i>
    <i type="int" name="IDIPOL">     0</i>
    <i name="EPSILON">      1.00000000</i>
    <v name="DIPOL">   -100.00000000   -100.00000000   -100.00000000</v>
    <i name="EFIELD">      0.00000000</i>
    <i type="logical" name="LVACPOTAV"> F  </i>
   </separator>
  </separator>
  <separator name="grids" >
   <i type="int" name="NGX">    40</i>
   <i type="int" name="NGY">    40</i>
   <i type="int" name="NGZ">    40</i>
   <i type="int" name="NGXF">    80</i>
   <i type="int" name="NGYF">    80</i>
   <i type="int" name="NGZF">    80</i>
   <i type="logical" name="ADDGRID"> F  </i>
  </separator>
  <separator name="ionic" >
   <i type="int" name="NSW">    99</i>
   <i type="int" name="IBRION">     2</i>
   <i type="int" name="MDALGO">     0</i>
   <i type="int" name="ISIF">     3</i>
   <i name="PSTRESS">      0.00000000</i>
   <i name="EDIFFG">      0.00500000</i>
   <i type="int" name="NFREE">     1</i>
   <i name="POTIM">      0.50000000</i>
   <i name="SMASS">     -3.00000000</i>
   <i name="SCALEE">      1.00000000</i>
  </separator>
  <separator name="ionic md" >
   <i name="TEBEG">      0.00010000</i>
   <i name="TEEND">      0.00010000</i>
   <i type="int" name="NBLOCK">     1</i>
   <i type="int" name="KBLOCK">    99</i>
   <i type="int" name="NPACO">   256</i>
   <i name="APACO">     10.00000000</i>
  </separator>
  <separator name="symmetry" >
   <i type="int" name="ISYM">     2</i>
   <i name="SYMPREC">      0.00001000</i>
  </separator>
  <separator name="dos" >
   <i type="int" name="LORBIT">    11</i>
   <v name="RWIGS">     -1.00000000     -1.00000000</v>
   <i type="int" name="NEDOS">   301</i>
   <i name="EMIN">     10.00000000</i>
   <i name="EMAX">    -10.00000000</i>
   <i name="EFERMI">      0.00000000</i>
  </separator>
  <separator name="writing" >
   <i type="int" name="NWRITE">     2</i>
   <i type="logical" name="LWAVE"> F  </i>
   <i type="logical" name="LDOWNSAMPLE"> F  </i>
   <i type="logical" name="LCHARG"> T  </i>
   <i type="logical" name="LPARD"> F  </i>
   <i type="logical" name="LVTOT"> F  </i>
   <i type="logical" name="LVHAR"> F  </i>
   <i type="logical" name="LELF"> F  </i>
   <i type="logical" name="LOPTICS"> F  </i>
   <v name="STM">      0.00000000      0.00000000      0.00000000      0.00000000      0.00000000      0.00000000      0.00000000</v>
  </separator>
  <separator name="performance" >
   <i type="int" name="NPAR">    32</i>
   <i type="int" name="NSIM">     4</i>
   <i type="int" name="NBLK">    -1</i>
   <i type="logical" name="LPLANE"> T  </i>
   <i type="logical" name="LSCALAPACK"> T  </i>
   <i type="logical" name="LSCAAWARE"> F  </i>
   <i type="logical" name="LSCALU"> F  </i>
   <i type="logical" name="LASYNC"> F  </i>
   <i type="logical" name="LORBITALREAL"> F  </i>
  </separator>
  <separator name="miscellaneous" >
   <i type="int" name="IDIOT">     3</i>
   <i type="int" name="PHON_NSTRUCT">    -1</i>
   <i type="logical" name="LMUSIC"> F  </i>
   <v name="POMASS">     26.98200000     16.00000000</v>
   <v name="DARWINR">      0.00000000      0.00000000</v>
   <v name="DARWINV">      1.00000000      1.00000000</v>
   <i type="logical" name="LCORR"> T  </i>
  </separator>
  <i type="logical" name="GGA_COMPAT"> T  </i>
  <i type="logical" name="LBERRY"> F  </i>
  <i type="int" name="ICORELEVEL">     0</i>
  <i type="logical" name="LDAU"> F  </i>
  <i type="int" name="I_CONSTRAINED_M">     0</i>
  <separator name="electronic exchange-correlation" >
   <i type="string" name="GGA    ">PE</i>
   <i type="string" name="XC_C">1</i>
   <i type="int" name="VOSKOWN">     0</i>
   <i type="logical" name="LHFCALC"> F  </i>
   <i type="string" name="PRECFOCK"></i>
   <i type="logical" name="LSYMGRAD"> F  </i>
   <i type="logical" name="LHFONE"> F  </i>
   <i type="logical" name="LRHFCALC"> F  </i>
   <i type="logical" name="LTHOMAS"> F  </i>
   <i type="logical" name="LMODELHF"> F  </i>
   <i type="logical" name="LFOCKACE"> F  </i>
   <i name="ENCUT4O">     -1.00000000</i>
   <i type="int" name="EXXOEP">     0</i>
   <i type="int" name="FOURORBIT">     0</i>
   <i name="AEXX">      0.00000000</i>
   <i name="HFALPHA">      0.00000000</i>
   <i name="MCALPHA">      0.00000000</i>
   <i name="ALDAX">      1.00000000</i>
   <i name="AGGAX">      1.00000000</i>
   <i name="AMGGAX">      1.00000000</i>
   <i name="ALDAC">      1.00000000</i>
   <i name="AGGAC">      1.00000000</i>
   <i name="AMGGAC">      1.00000000</i>
   <i type="int" name="NKREDX">     1</i>
   <i type="int" name="NKREDY">     1</i>
   <i type="int" name="NKREDZ">     1</i>
   <i type="logical" name="SHIFTRED"> F  </i>
   <i type="logical" name="ODDONLY"> F  </i>
   <i type="logical" name="EVENONLY"> F  </i>
   <i type="int" name="LMAXFOCK">     0</i>
   <i type="int" name="NMAXFOCKAE">     0</i>
   <i type="logical" name="LFOCKAEDFT"> F  </i>
   <i name="HFSCREEN">      0.00000000</i>
   <i name="HFSCREENC">      0.00000000</i>
   <i type="int" name="NBANDSGWLOW">     0</i>
  </separator>
  <separator name="vdW DFT" >
   <i type="logical" name="LUSE_VDW"> F  </i>
   <i type="int" name="IVDW_NL">    -1</i>
   <i type="logical" name="LSPIN_VDW"> F  </i>
   <i name="ZAB_VDW">     -0.84910000</i>
   <i name="GAMMA_VDW">      1.39626340</i>
   <i name="ALPHA_VDW">      0.00000000</i>
   <i name="PARAM1">      0.12340000</i>
   <i name="PARAM2">      1.00000000</i>
   <i name="BPARAM">      6.30000000</i>
   <i name="CPARAM">      0.00930000</i>
  </separator>
  <separator name="model GW" >
   <i type="int" name="MODEL_GW">     0</i>
   <i name="MODEL_EPS0">      5.24520222</i>
   <i name="MODEL_ALPHA">      1.00000000</i>
  </separator>
  <separator name="linear response parameters" >
   <i type="logical" name="LEPSILON"> F  </i>
   <i type="logical" name="LRPA"> F  </i>
   <i type="logical" name="LNABLA"> F  </i>
   <i type="logical" name="LVEL"> F  </i>
   <i name="CSHIFT">      0.10000000</i>
   <i name="OMEGAMAX">     -1.00000000</i>
   <i name="DEG_THRESHOLD">      0.00200000</i>
   <i name="RTIME">     -0.10000000</i>
   <i name="WPLASMAI">      0.00000000</i>
   <v name="DFIELD">      0.00000000      0.00000000      0.00000000</v>
   <v name="WPLASMA">      0.00000000      0.00000000      0.00000000      0.00000000      0.00000000      0.00000000      0.00000000      0.00000000      0.00000000</v>
  </separator>
  <separator name="orbital magnetization" >
   <i type="logical" name="NUCIND"> F  </i>
   <v name="MAGPOS">      0.00000000      0.00000000      0.00000000</v>
   <i type="logical" name="LNICSALL"> T  </i>
   <i type="logical" name="ORBITALMAG"> F  </i>
   <i type="logical" name="LMAGBLOCH"> F  </i>
   <i type="logical" name="LCHIMAG"> F  </i>
   <i type="logical" name="LGAUGE"> T  </i>
   <i type="int" name="MAGATOM">     0</i>
   <v name="MAGDIPOL">      0.00000000      0.00000000      0.00000000</v>
   <v name="AVECCONST">      0.00000000      0.00000000      0.00000000</v>
  </separator>
  <separator name="response functions" >
   <i type="logical" name="LALL_IN_ONE"> F  </i>
   <i type="int" name="IALL_IN_ONE">    -1</i>
   <i type="int" name="NBANDS_WAVE">    -1</i>
   <i type="logical" name="LFINITE_TEMPERATURE"> F  </i>
   <i type="logical" name="LADDER"> F  </i>
   <i type="logical" name="LRPAFORCE"> F  </i>
   <i type="logical" name="LFXC"> F  </i>
   <i type="logical" name="LHARTREE"> T  </i>
   <i type="int" name="IBSE">     0</i>
   <v type="int" name="KPOINT">    -1     0     0     0</v>
   <i type="logical" name="LTCTC"> F  </i>
   <i type="logical" name="LTCTE"> F  </i>
   <i type="logical" name="LTETE"> F  </i>
   <i type="logical" name="LTRIPLET"> F  </i>
   <i type="logical" name="LFXCEPS"> F  </i>
   <i type="logical" name="LFXHEG"> F  </i>
   <i type="int" name="NATURALO">     2</i>
   <i type="logical" name="LHOLEGF"> F  </i>
   <i type="logical" name="L2ORDER"> F  </i>
   <i type="logical" name="LDMP1"> F  </i>
   <i type="logical" name="LMP2LT"> F  </i>
   <i type="logical" name="LSMP2LT"> F  </i>
   <i type="logical" name="LGWLF"> F  </i>
   <i name="ENCUTGW">     -1.60000002</i>
   <i name="ENCUTGWSOFT">     -1.60000002</i>
   <i name="ENCUTLF">     -1.00000000</i>
   <i type="logical" name="ESF_SPLINES"> F  </i>
   <i name="ESF_CONV">      0.01000000</i>
   <i type="int" name="ESF_NINTER">    15</i>
   <i type="int" name="LMAXMP2">    -1</i>
   <i name="SCISSOR">      0.00000000</i>
   <i type="int" name="NOMEGA">     0</i>
   <i type="int" name="NOMEGAR">     0</i>
   <i type="int" name="NBANDSGW">    -1</i>
   <i type="int" name="NBANDSO">    -1</i>
   <i type="int" name="NBANDSV">    -1</i>
   <i type="int" name="NELMGW">     1</i>
   <i type="int" name="NELMHF">     1</i>
   <i type="int" name="DIM">     3</i>
   <i type="int" name="IESPILON">     4</i>
   <i type="int" name="ANTIRES">     0</i>
   <i name="OMEGAMAX">    -30.00000000</i>
   <i name="OMEGAMIN">    -30.00000000</i>
   <i name="OMEGATL">   -200.00000000</i>
   <i type="int" name="OMEGAGRID">     0</i>
   <i name="CSHIFT">     -0.10000000</i>
   <i type="logical" name="LSELFENERGY"> F  </i>
   <i type="logical" name="LSPECTRAL"> F  </i>
   <i type="logical" name="LSPECTRALGW"> F  </i>
   <i type="logical" name="LSINGLES"> F  </i>
   <i type="logical" name="LFERMIGW"> F  </i>
   <i type="logical" name="ODDONLYGW"> F  </i>
   <i type="logical" name="EVENONLYGW"> F  </i>
   <i type="int" name="NKREDLFX">     1</i>
   <i type="int" name="NKREDLFY">     1</i>
   <i type="int" name="NKREDLFZ">     1</i>
   <i type="int" name="MAXMEM">  2800</i>
   <i type="int" name="TELESCOPE">     0</i>
   <i type="int" name="NTAUPAR">    -1</i>
   <i type="int" name="NOMEGAPAR">    -1</i>
   <i name="DAMP_NEWTON">      0.80000001</i>
   <i name="LAMBDA">      1.00000000</i>
  </separator>
  <separator name="External order field" >
   <i name="OFIELD_KAPPA">      0.00000000</i>
   <v name="OFIELD_K">      0.00000000      0.00000000      0.00000000</v>
   <i name="OFIELD_Q6_NEAR">      0.00000000</i>
   <i name="OFIELD_Q6_FAR">      0.00000000</i>
   <i name="OFIELD_A">      0.00000000</i>
  </separator>
  <separator name="optional k-points parameters" >
   <i type="int" name="KPOINTS_OPT_MODE">     1</i>
   <i type="logical" name="LKPOINTS_OPT"> F  </i>
  </separator>
 </parameters>
 <atominfo>
  <atoms>      10 </atoms>
  <types>       2 </types>
  <array name="atoms" >
   <dimension dim="1">ion</dimension>
   <field type="string">element</field>
   <field type="int">atomtype</field>
   <set>
    <rc><c>Al</c><c>   1</c></rc>
    <rc><c>Al</c><c>   1</c></rc>
    <rc><c>Al</c><c>   1</c></rc>
    <rc><c>Al</c><c>   1</c></rc>
    <rc><c>O </c><c>   2</c></rc>
    <rc><c>O </c><c>   2</c></rc>
    <rc><c>O </c><c>   2</c></rc>
    <rc><c>O </c><c>   2</c></rc>
    <rc><c>O </c><c>   2</c></rc>
    <rc><c>O </c><c>   2</c></rc>
   </set>
  </array>
  <array name="atomtypes" >
   <dimension dim="1">type</dimension>
   <field type="int">atomspertype</field>
   <field type="string">element</field>
   <field>mass</field>
   <field>valence</field>
   <field type="string">pseudopotential</field>
   <set>
    <rc><c>   4</c><c>Al</c><c>     26.98200000</c><c>      3.00000000</c><c> PAW_PBE Al 04Jan2001                   </c></rc>
    <rc><c>   6</c><c>O </c><c>     16.00000000</c><c>      6.00000000</c><c> PAW_PBE O 08Apr2002                    </c></rc>
   </set>
  </array>
 </atominfo>
 <structure name="initialpos" >
  <crystal>
   <varray name="basis" >
    <v>       4.58684500      -2.40251400       0.00000000 </v>
    <v>       4.58684500       2.40251400       0.00000000 </v>
    <v>       3.32844800       0.00000000       3.96644100 </v>
   </varray>
   <i name="volume">     87.42003700 </i>
   <varray name="rec_basis" >
    <v>       0.10900739      -0.20811533      -0.09147380 </v>
    <v>       0.10900739       0.20811533      -0.09147380 </v>
    <v>       0.00000000       0.00000000       0.25211518 </v>
   </varray>
  </crystal>
  <varray name="positions" >
   <v>       0.14790400       0.14790400       0.14790400 </v>
   <v>       0.35209600       0.35209600       0.35209600 </v>
   <v>       0.64790400       0.64790400       0.64790400 </v>
   <v>       0.85209600       0.85209600       0.85209600 </v>
   <v>       0.55614600       0.94385400       0.25000000 </v>
   <v>       0.75000000       0.44385400       0.05614600 </v>
   <v>       0.25000000       0.55614600       0.94385400 </v>
   <v>       0.94385400       0.25000000       0.55614600 </v>
   <v>       0.05614600       0.75000000       0.44385400 </v>
   <v>       0.44385400       0.05614600       0.75000000 </v>
  </varray>
 </structure>
 <calculation>
  <scstep>
   <time name="dav">    1.47    1.48</time>
   <time name="total">    1.61    1.62</time>
   <energy>
    <i name="alphaZ">     73.82522833 </i>
    <i name="ewald">  -2375.05698142 </i>
    <i name="hartreedc">   -641.16436123 </i>
    <i name="XCdc">     66.94498652 </i>
    <i name="pawpsdc">   1617.84162041 </i>
    <i name="pawaedc">  -1501.11164650 </i>
    <i name="eentropy">      0.00000000 </i>
    <i name="bandstr">     62.17124502 </i>
    <i name="atom">   2808.30174739 </i>
    <i name="e_fr_energy">    111.75183853 </i>
    <i name="e_wo_entrp">    111.75183853 </i>
    <i name="e_0_energy">    111.75183853 </i>
   </energy>
  </scstep>
  <scstep>
   <time name="dav">    2.09    2.11</time>
   <time name="total">    2.10    2.11</time>
   <energy>
    <i name="e_fr_energy">    -76.68904838 </i>
    <i name="e_wo_entrp">    -76.68904838 </i>
    <i name="e_0_energy">    -76.68904838 </i>
   </energy>
  </scstep>
  <scstep>
   <time name="dav">    1.84    1.86</time>
   <time name="total">    1.85    1.86</time>
   <energy>
    <i name="e_fr_energy">    -81.42581524 </i>
    <i name="e_wo_entrp">    -81.42581524 </i>
    <i name="e_0_energy">    -81.42581524 </i>
   </energy>
  </scstep>
  <scstep>
   <time name="dav">    2.03    2.04</time>
   <time name="total">    2.03    2.05</time>
   <energy>
    <i name="e_fr_energy">    -81.44948999 </i>
    <i name="e_wo_entrp">    -81.44948999 </i>
    <i name="e_0_energy">    -81.44948999 </i>
   </energy>
  </scstep>
  <scstep>
   <time name="dav">    1.70    1.72</time>
   <time name="total">    1.75    1.76</time>
   <energy>
    <i name="e_fr_energy">    -81.44973174 </i>
    <i name="e_wo_entrp">    -81.44973174 </i>
    <i name="e_0_energy">    -81.44973174 </i>
   </energy>
  </scstep>
  <scstep>
   <time name="diag">    0.20    0.20</time>
   <time name="diis">    0.84    0.84</time>
   <time name="orth">    0.01    0.01</time>
   <time name="total">    1.24    1.25</time>
   <energy>
    <i name="e_fr_energy">    -74.70517698 </i>
    <i name="e_wo_entrp">    -74.70517698 </i>
    <i name="e_0_energy">    -74.70517698 </i>
   </energy>
  </scstep>
  <scstep>
   <time name="diag">    0.20    0.20</time>
   <time name="diis">    0.83    0.84</time>
   <time name="orth">    0.01    0.01</time>
   <time name="total">    1.24    1.25</time>
   <energy>
    <i name="e_fr_energy">    -74.79644330 </i>
    <i name="e_wo_entrp">    -74.79644330 </i>
    <i name="e_0_energy">    -74.79644330 </i>
   </energy>
  </scstep>
  <scstep>
   <time name="diag">    0.20    0.20</time>
   <time name="diis">    0.83    0.84</time>
   <time name="orth">    0.01    0.01</time>
   <time name="total">    1.24    1.25</time>
   <energy>
    <i name="e_fr_energy">    -74.80341828 </i>
    <i name="e_wo_entrp">    -74.80341828 </i>
    <i name="e_0_energy">    -74.80341828 </i>
   </energy>
  </scstep>
  <scstep>
   <time name="diag">    0.20    0.20</time>
   <time name="diis">    0.83    0.84</time>
   <time name="orth">    0.01    0.01</time>
   <time name="total">    1.24    1.24</time>
   <energy>
    <i name="e_fr_energy">    -74.81687986 </i>
    <i name="e_wo_entrp">    -74.81687986 </i>
    <i name="e_0_energy">    -74.81687986 </i>
   </energy>
  </scstep>
  <scstep>
   <time name="diag">    0.20    0.20</time>
   <time name="diis">    0.84    0.84</time>
   <time name="orth">    0.01    0.01</time>
   <time name="total">    1.24    1.25</time>
   <energy>
    <i name="e_fr_energy">    -74.81338573 </i>
    <i name="e_wo_entrp">    -74.81338573 </i>
    <i name="e_0_energy">    -74.81338573 </i>
   </energy>
  </scstep>
  <scstep>
   <time name="diag">    0.20    0.20</time>
   <time name="diis">    0.83    0.84</time>
   <time name="orth">    0.01    0.01</time>
   <time name="total">    1.19    1.20</time>
   <energy>
    <i name="alphaZ">     73.82522833 </i>
    <i name="ewald">  -2375.05698142 </i>
    <i name="hartreedc">   -750.17888895 </i>
    <i name="XCdc">     74.48826805 </i>
    <i name="pawpsdc">   2020.29815226 </i>
    <i name="pawaedc">  -1905.42572892 </i>
    <i name="eentropy">      0.00000000 </i>
    <i name="bandstr">    -21.06553163 </i>
    <i name="atom">   2808.30174739 </i>
    <i name="e_fr_energy">    -74.81373488 </i>
    <i name="e_wo_entrp">    -74.81373488 </i>
    <i name="e_0_energy">    -74.81373488 </i>
   </energy>
  </scstep>
  <structure>
   <crystal>
    <varray name="basis" >
     <v>       4.58684500      -2.40251400       0.00000000 </v>
     <v>       4.58684500       2.40251400       0.00000000 </v>
     <v>       3.32844800       0.00000000       3.96644100 </v>
    </varray>
    <i name="volume">     87.42003700 </i>
    <varray name="rec_basis" >
     <v>       0.10900739      -0.20811533      -0.09147380 </v>
     <v>       0.10900739       0.20811533      -0.09147380 </v>
     <v>       0.00000000       0.00000000       0.25211518 </v>
    </varray>
   </crystal>
   <varray name="positions" >
    <v>       0.14790400       0.14790400       0.14790400 </v>
    <v>       0.35209600       0.35209600       0.35209600 </v>
    <v>       0.64790400       0.64790400       0.64790400 </v>
    <v>       0.85209600       0.85209600       0.85209600 </v>
    <v>       0.55614600       0.94385400       0.25000000 </v>
    <v>       0.75000000       0.44385400       0.05614600 </v>
    <v>       0.25000000       0.55614600       0.94385400 </v>
    <v>       0.94385400       0.25000000       0.55614600 </v>
    <v>       0.05614600       0.75000000       0.44385400 </v>
    <v>       0.44385400       0.05614600       0.75000000 </v>
   </varray>
  </structure>
  <varray name="forces" >
   <v>      -0.00575620      -0.00000000      -0.00182622 </v>
   <v>       0.00575620      -0.00000000       0.00182622 </v>
   <v>      -0.00575620      -0.00000000      -0.00182622 </v>
   <v>       0.00575620      -0.00000000       0.00182622 </v>
   <v>      -0.00000000      -0.00493338      -0.00000000 </v>
   <v>      -0.00129201      -0.00246669       0.00407239 </v>
   <v>       0.00129201       0.00246669      -0.00407239 </v>
   <v>      -0.00129201       0.00246669       0.00407239 </v>
   <v>       0.00129201      -0.00246669      -0.00407239 </v>
   <v>      -0.00000000       0.00493338       0.00000000 </v>
  </varray>
  <varray name="stress" >
   <v>      -7.48361237       0.00000000      -0.39616902 </v>
   <v>       0.00000000      -6.23489767       0.00000000 </v>
   <v>      -0.39616902       0.00000000      -6.36058550 </v>
  </varray>
  <energy>
   <i name="e_fr_energy">    -74.81373488 </i>
   <i name="e_wo_entrp">    -74.81373488 </i>
   <i name="e_0_energy">    -74.81373488 </i>
  </energy>
  <time name="totalsc">   19.56   19.72</time>
 </calculation>
 <calculation>
  <scstep>
   <time name="dav">    2.09    2.10</time>
   <time name="total">    2.29    2.30</time>
   <energy>
    <i name="alphaZ">     74.21680447 </i>
    <i name="ewald">  -2379.31911594 </i>
    <i name="hartreedc">   -751.14726110 </i>
    <i name="XCdc">     74.80472797 </i>
    <i name="pawpsdc">   2018.54745372 </i>
    <i name="pawaedc">  -1903.67212707 </i>
    <i name="eentropy">      0.00000000 </i>
    <i name="bandstr">    -16.55148762 </i>
    <i name="atom">   2808.30174739 </i>
    <i name="e_fr_energy">    -74.81925818 </i>
    <i name="e_wo_entrp">    -74.81925818 </i>
    <i name="e_0_energy">    -74.81925818 </i>
   </energy>
  </scstep>
  <scstep>
   <time name="diag">    0.20    0.20</time>
   <time name="diis">    0.84    0.84</time>
   <time name="orth">    0.01    0.01</time>
   <time name="total">    1.24    1.25</time>
   <energy>
    <i name="e_fr_energy">    -74.81095575 </i>
    <i name="e_wo_entrp">    -74.81095575 </i>
    <i name="e_0_energy">    -74.81095575 </i>
   </energy>
  </scstep>
  <scstep>
   <time name="diag">    0.20    0.20</time>
   <time name="diis">    0.65    0.65</time>
   <time name="orth">    0.01    0.01</time>
   <time name="total">    1.00    1.01</time>
   <energy>
    <i name="alphaZ">     74.21680447 </i>
    <i name="ewald">  -2379.31911594 </i>
    <i name="hartreedc">   -747.91838218 </i>
    <i name="XCdc">     74.58786373 </i>
    <i name="pawpsdc">   2017.94520847 </i>
    <i name="pawaedc">  -1903.05856575 </i>
    <i name="eentropy">      0.00000000 </i>
    <i name="bandstr">    -19.56647101 </i>
    <i name="atom">   2808.30174739 </i>
    <i name="e_fr_energy">    -74.81091082 </i>
    <i name="e_wo_entrp">    -74.81091082 </i>
    <i name="e_0_energy">    -74.81091082 </i>
   </energy>
  </scstep>
  <structure>
   <crystal>
    <varray name="basis" >
     <v>       4.57780940      -2.39857100      -0.00047833 </v>
     <v>       4.57780940       2.39857100      -0.00047833 </v>
     <v>       3.32147768       0.00000000       3.95945296 </v>
    </varray>
    <i name="volume">     86.95879913 </i>
    <varray name="rec_basis" >
     <v>       0.10921297      -0.20845745      -0.09161580 </v>
     <v>       0.10921297       0.20845745      -0.09161580 </v>
     <v>       0.00002639      -0.00000000       0.25253801 </v>
    </varray>
   </crystal>
   <varray name="positions" >
    <v>       0.14788179       0.14788179       0.14788179 </v>
    <v>       0.35211821       0.35211821       0.35211821 </v>
    <v>       0.64788179       0.64788179       0.64788179 </v>
    <v>       0.85211821       0.85211821       0.85211821 </v>
    <v>       0.55619553       0.94380447       0.25000000 </v>
    <v>       0.75000000       0.44380447       0.05619553 </v>
    <v>       0.25000000       0.55619553       0.94380447 </v>
    <v>       0.94380447       0.25000000       0.55619553 </v>
    <v>       0.05619553       0.75000000       0.44380447 </v>
    <v>       0.44380447       0.05619553       0.75000000 </v>
   </varray>
  </structure>
  <varray name="forces" >
   <v>      -0.00630211       0.00000000      -0.00199941 </v>
   <v>       0.00630211       0.00000000       0.00199941 </v>
   <v>      -0.00630211       0.00000000      -0.00199941 </v>
   <v>       0.00630211       0.00000000       0.00199941 </v>
   <v>       0.00000000      -0.00556593      -0.00000000 </v>
   <v>      -0.00145767      -0.00278297       0.00459455 </v>
   <v>       0.00145767       0.00278297      -0.00459455 </v>
   <v>      -0.00145767       0.00278297       0.00459455 </v>
   <v>       0.00145767      -0.00278297      -0.00459455 </v>
   <v>      -0.00000000       0.00556593      -0.00000000 </v>
  </varray>
  <varray name="stress" >
   <v>      16.80353222      -0.00000000      -0.37795890 </v>
   <v>      -0.00000000      17.99485544       0.00000000 </v>
   <v>      -0.37795890       0.00000000      17.87494048 </v>
  </varray>
  <energy>
   <i name="e_fr_energy">    -74.81091082 </i>
   <i name="e_wo_entrp">    -74.81091082 </i>
   <i name="e_0_energy">    -74.81091082 </i>
  </energy>
  <time name="totalsc">    6.53    6.56</time>
 </calculation>
 <calculation>
  <scstep>
   <time name="dav">    2.00    2.01</time>
   <time name="total">    2.19    2.21</time>
   <energy>
    <i name="alphaZ">     73.93525312 </i>
    <i name="ewald">  -2376.25600384 </i>
    <i name="hartreedc">   -747.22248021 </i>
    <i name="XCdc">     74.36456830 </i>
    <i name="pawpsdc">   2020.97797616 </i>
    <i name="pawaedc">  -1906.11742267 </i>
    <i name="eentropy">      0.00000000 </i>
    <i name="bandstr">    -22.80030907 </i>
    <i name="atom">   2808.30174739 </i>
    <i name="e_fr_energy">    -74.81667084 </i>
    <i name="e_wo_entrp">    -74.81667084 </i>
    <i name="e_0_energy">    -74.81667084 </i>
   </energy>
  </scstep>
  <scstep>
   <time name="diag">    0.19    0.20</time>
   <time name="diis">    1.03    1.04</time>
   <time name="orth">    0.01    0.01</time>
   <time name="total">    1.45    1.46</time>
   <energy>
    <i name="e_fr_energy">    -74.81319603 </i>
    <i name="e_wo_entrp">    -74.81319603 </i>
    <i name="e_0_energy">    -74.81319603 </i>
   </energy>
  </scstep>
  <scstep>
   <time name="diag">    0.22    0.22</time>
   <time name="diis">    0.65    0.65</time>
   <time name="orth">    0.01    0.01</time>
   <time name="total">    1.06    1.06</time>
   <energy>
    <i name="alphaZ">     73.93525312 </i>
    <i name="ewald">  -2376.25600384 </i>
    <i name="hartreedc">   -749.31867225 </i>
    <i name="XCdc">     74.50540848 </i>
    <i name="pawpsdc">   2021.32028862 </i>
    <i name="pawaedc">  -1906.46168541 </i>
    <i name="eentropy">      0.00000000 </i>
    <i name="bandstr">    -20.83950763 </i>
    <i name="atom">   2808.30174739 </i>
    <i name="e_fr_energy">    -74.81317153 </i>
    <i name="e_wo_entrp">    -74.81317153 </i>
    <i name="e_0_energy">    -74.81317153 </i>
   </energy>
  </scstep>
  <structure>
   <crystal>
    <varray name="basis" >
     <v>       4.58429973      -2.40140328      -0.00013474 </v>
     <v>       4.58429973       2.40140328      -0.00013474 </v>
     <v>       3.32648450       0.00000000       3.96447251 </v>
    </varray>
    <i name="volume">     87.28994519 </i>
    <varray name="rec_basis" >
     <v>       0.10906522      -0.20821159      -0.09151376 </v>
     <v>       0.10906522       0.20821159      -0.09151376 </v>
     <v>       0.00000741      -0.00000000       0.25223415 </v>
    </varray>
   </crystal>
   <varray name="positions" >
    <v>       0.14789778       0.14789778       0.14789778 </v>
    <v>       0.35210222       0.35210222       0.35210222 </v>
    <v>       0.64789778       0.64789778       0.64789778 </v>
    <v>       0.85210222       0.85210222       0.85210222 </v>
    <v>       0.55615989       0.94384011       0.25000000 </v>
    <v>       0.75000000       0.44384011       0.05615989 </v>
    <v>       0.25000000       0.55615989       0.94384011 </v>
    <v>       0.94384011       0.25000000       0.55615989 </v>
    <v>       0.05615989       0.75000000       0.44384011 </v>
    <v>       0.44384011       0.05615989       0.75000000 </v>
   </varray>
  </structure>
  <varray name="forces" >
   <v>      -0.00487965       0.00000000      -0.00154812 </v>
   <v>       0.00487965       0.00000000       0.00154812 </v>
   <v>      -0.00487965       0.00000000      -0.00154812 </v>
   <v>       0.00487965       0.00000000       0.00154812 </v>
   <v>       0.00000000      -0.00405526       0.00000000 </v>
   <v>      -0.00106204      -0.00202763       0.00334752 </v>
   <v>       0.00106204       0.00202763      -0.00334752 </v>
   <v>      -0.00106204       0.00202763       0.00334752 </v>
   <v>       0.00106204      -0.00202763      -0.00334752 </v>
   <v>      -0.00000000       0.00405526       0.00000000 </v>
  </varray>
  <varray name="stress" >
   <v>       5.31975049      -0.00000000      -0.16548885 </v>
   <v>      -0.00000000       5.84136939      -0.00000000 </v>
   <v>      -0.16548885       0.00000000       5.78886514 </v>
  </varray>
  <energy>
   <i name="e_fr_energy">    -74.81317153 </i>
   <i name="e_wo_entrp">    -74.81317153 </i>
   <i name="e_0_energy">    -74.81317153 </i>
  </energy>
  <time name="totalsc">    6.64    6.68</time>
  <eigenvalues>
   <array>
    <dimension dim="1">band</dimension>
    <dimension dim="2">kpoint</dimension>
    <dimension dim="3">spin</dimension>
    <field>eigene</field>
    <field>occ</field>
    <set>
     <set comment="spin 1">
      <set comment="kpoint 1">
       <r>  -13.2003    1.0000 </r>
       <r>  -10.9668    1.0000 </r>
       <r>  -10.7010    1.0000 </r>
       <r>  -10.7010    1.0000 </r>
       <r>  -10.3928    1.0000 </r>
       <r>  -10.3928    1.0000 </r>
       <r>   -0.9270    1.0000 </r>
       <r>    0.0380    1.0000 </r>
       <r>    0.4350    1.0000 </r>
       <r>    0.4350    1.0000 </r>
       <r>    1.5269    1.0000 </r>
       <r>    1.6600    1.0000 </r>
       <r>    1.6600    1.0000 </r>
       <r>    2.6461    1.0000 </r>
       <r>    2.9368    1.0000 </r>
       <r>    4.4625    1.0000 </r>
       <r>    4.4625    1.0000 </r>
       <r>    4.6021    1.0000 </r>
       <r>    4.6021    1.0000 </r>
       <r>    5.3796    1.0000 </r>
       <r>    5.3796    1.0000 </r>
       <r>    5.8097    1.0000 </r>
       <r>    5.8097    1.0000 </r>
       <r>    5.8409    1.0000 </r>
       <r>   11.7312    0.0000 </r>
       <r>   14.7694    0.0000 </r>
       <r>   16.2488    0.0000 </r>
       <r>   17.1359    0.0000 </r>
       <r>   17.1359    0.0000 </r>
       <r>   17.3068    0.0000 </r>
       <r>   18.0223    0.0000 </r>
       <r>   18.0223    0.0000 </r>
       <r>   18.1218    0.0000 </r>
       <r>   19.0389    0.0000 </r>
       <r>   20.2134    0.0000 </r>
       <r>   20.2134    0.0000 </r>
       <r>   20.3734    0.0000 </r>
       <r>   20.3734    0.0000 </r>
       <r>   20.4109    0.0000 </r>
       <r>   21.4053    0.0000 </r>
       <r>   21.5469    0.0000 </r>
       <r>   23.8870    0.0000 </r>
       <r>   23.8870    0.0000 </r>
       <r>   24.3658    0.0000 </r>
       <r>   24.3658    0.0000 </r>
       <r>   25.5565    0.0000 </r>
       <r>   25.6005    0.0000 </r>
       <r>   25.8295    0.0000 </r>
       <r>   25.9770    0.0000 </r>
       <r>   25.9770    0.0000 </r>
       <r>   26.4783    0.0000 </r>
       <r>   26.4783    0.0000 </r>
       <r>   29.3529    0.0000 </r>
       <r>   29.3529    0.0000 </r>
       <r>   29.4884    0.0000 </r>
       <r>   29.5923    0.0000 </r>
       <r>   29.5923    0.0000 </r>
       <r>   30.0781    0.0000 </r>
       <r>   32.3391    0.0000 </r>
       <r>   32.3391    0.0000 </r>
       <r>   32.4544    0.0000 </r>
       <r>   33.5984    0.0000 </r>
       <r>   33.5984    0.0000 </r>
       <r>   34.5706    0.0000 </r>
      </set>
      <set comment="kpoint 2">
       <r>  -13.0022    1.0000 </r>
       <r>  -11.0935    1.0000 </r>
       <r>  -10.7822    1.0000 </r>
       <r>  -10.7346    1.0000 </r>
       <r>  -10.4836    1.0000 </r>
       <r>  -10.4101    1.0000 </r>
       <r>   -0.7259    1.0000 </r>
       <r>   -0.1981    1.0000 </r>
       <r>    0.1805    1.0000 </r>
       <r>    0.9441    1.0000 </r>
       <r>    1.1823    1.0000 </r>
       <r>    1.6395    1.0000 </r>
       <r>    2.7030    1.0000 </r>
       <r>    3.2734    1.0000 </r>
       <r>    3.3472    1.0000 </r>
       <r>    3.8819    1.0000 </r>
       <r>    4.2522    1.0000 </r>
       <r>    4.4986    1.0000 </r>
       <r>    4.6398    1.0000 </r>
       <r>    4.7901    1.0000 </r>
       <r>    5.1572    1.0000 </r>
       <r>    5.4723    1.0000 </r>
       <r>    5.7505    1.0000 </r>
       <r>    5.7785    1.0000 </r>
       <r>   12.6040    0.0000 </r>
       <r>   15.4548    0.0000 </r>
       <r>   15.7512    0.0000 </r>
       <r>   16.6629    0.0000 </r>
       <r>   16.7174    0.0000 </r>
       <r>   17.0703    0.0000 </r>
       <r>   18.2624    0.0000 </r>
       <r>   18.3413    0.0000 </r>
       <r>   18.4824    0.0000 </r>
       <r>   18.5781    0.0000 </r>
       <r>   19.8468    0.0000 </r>
       <r>   19.9719    0.0000 </r>
       <r>   20.0974    0.0000 </r>
       <r>   20.3743    0.0000 </r>
       <r>   20.5927    0.0000 </r>
       <r>   21.0805    0.0000 </r>
       <r>   21.3985    0.0000 </r>
       <r>   23.0344    0.0000 </r>
       <r>   23.8930    0.0000 </r>
       <r>   24.0478    0.0000 </r>
       <r>   24.3186    0.0000 </r>
       <r>   24.3569    0.0000 </r>
       <r>   24.8938    0.0000 </r>
       <r>   25.7971    0.0000 </r>
       <r>   26.3006    0.0000 </r>
       <r>   26.3778    0.0000 </r>
       <r>   26.8547    0.0000 </r>
       <r>   27.9766    0.0000 </r>
       <r>   28.9247    0.0000 </r>
       <r>   29.3577    0.0000 </r>
       <r>   29.5965    0.0000 </r>
       <r>   30.6930    0.0000 </r>
       <r>   30.8013    0.0000 </r>
       <r>   31.5918    0.0000 </r>
       <r>   32.4920    0.0000 </r>
       <r>   32.8660    0.0000 </r>
       <r>   33.2688    0.0000 </r>
       <r>   33.9074    0.0000 </r>
       <r>   34.1894    0.0000 </r>
       <r>   34.2872    0.0000 </r>
      </set>
      <set comment="kpoint 3">
       <r>  -12.4551    1.0000 </r>
       <r>  -11.7158    1.0000 </r>
       <r>  -10.7458    1.0000 </r>
       <r>  -10.6738    1.0000 </r>
       <r>  -10.6497    1.0000 </r>
       <r>  -10.5094    1.0000 </r>
       <r>   -0.5507    1.0000 </r>
       <r>   -0.2885    1.0000 </r>
       <r>    0.3614    1.0000 </r>
       <r>    0.9129    1.0000 </r>
       <r>    1.9484    1.0000 </r>
       <r>    2.3011    1.0000 </r>
       <r>    2.5690    1.0000 </r>
       <r>    3.2040    1.0000 </r>
       <r>    3.5156    1.0000 </r>
       <r>    3.9051    1.0000 </r>
       <r>    4.0279    1.0000 </r>
       <r>    4.4067    1.0000 </r>
       <r>    4.4203    1.0000 </r>
       <r>    4.5413    1.0000 </r>
       <r>    4.9317    1.0000 </r>
       <r>    5.2155    1.0000 </r>
       <r>    5.5983    1.0000 </r>
       <r>    5.6266    1.0000 </r>
       <r>   14.2372    0.0000 </r>
       <r>   15.2415    0.0000 </r>
       <r>   15.4719    0.0000 </r>
       <r>   15.6969    0.0000 </r>
       <r>   16.9536    0.0000 </r>
       <r>   17.3045    0.0000 </r>
       <r>   17.8410    0.0000 </r>
       <r>   17.8492    0.0000 </r>
       <r>   18.5566    0.0000 </r>
       <r>   18.8680    0.0000 </r>
       <r>   18.9746    0.0000 </r>
       <r>   19.0977    0.0000 </r>
       <r>   20.2191    0.0000 </r>
       <r>   20.6184    0.0000 </r>
       <r>   20.9551    0.0000 </r>
       <r>   20.9655    0.0000 </r>
       <r>   21.5277    0.0000 </r>
       <r>   21.7092    0.0000 </r>
       <r>   22.3046    0.0000 </r>
       <r>   23.0817    0.0000 </r>
       <r>   24.2065    0.0000 </r>
       <r>   25.0361    0.0000 </r>
       <r>   25.6248    0.0000 </r>
       <r>   25.9647    0.0000 </r>
       <r>   26.6084    0.0000 </r>
       <r>   27.1921    0.0000 </r>
       <r>   27.5948    0.0000 </r>
       <r>   28.0474    0.0000 </r>
       <r>   28.9561    0.0000 </r>
       <r>   29.3327    0.0000 </r>
       <r>   31.0507    0.0000 </r>
       <r>   31.7260    0.0000 </r>
       <r>   31.8505    0.0000 </r>
       <r>   32.3912    0.0000 </r>
       <r>   33.0843    0.0000 </r>
       <r>   33.2248    0.0000 </r>
       <r>   33.8214    0.0000 </r>
       <r>   34.1419    0.0000 </r>
       <r>   34.1904    0.0000 </r>
       <r>   34.4526    0.0000 </r>
      </set>
      <set comment="kpoint 4">
       <r>  -12.9490    1.0000 </r>
       <r>  -11.0714    1.0000 </r>
       <r>  -10.8478    1.0000 </r>
       <r>  -10.7341    1.0000 </r>
       <r>  -10.5819    1.0000 </r>
       <r>  -10.3742    1.0000 </r>
       <r>   -0.5498    1.0000 </r>
       <r>   -0.2322    1.0000 </r>
       <r>    0.3828    1.0000 </r>
       <r>    1.1009    1.0000 </r>
       <r>    1.1020    1.0000 </r>
       <r>    1.5940    1.0000 </r>
       <r>    2.5669    1.0000 </r>
       <r>    3.3722    1.0000 </r>
       <r>    3.5226    1.0000 </r>
       <r>    3.6183    1.0000 </r>
       <r>    4.1914    1.0000 </r>
       <r>    4.3630    1.0000 </r>
       <r>    4.5477    1.0000 </r>
       <r>    5.0050    1.0000 </r>
       <r>    5.0557    1.0000 </r>
       <r>    5.3458    1.0000 </r>
       <r>    5.6573    1.0000 </r>
       <r>    5.7713    1.0000 </r>
       <r>   12.7992    0.0000 </r>
       <r>   15.4707    0.0000 </r>
       <r>   15.7624    0.0000 </r>
       <r>   16.5349    0.0000 </r>
       <r>   17.1239    0.0000 </r>
       <r>   17.2968    0.0000 </r>
       <r>   17.5352    0.0000 </r>
       <r>   18.1767    0.0000 </r>
       <r>   18.7128    0.0000 </r>
       <r>   18.9122    0.0000 </r>
       <r>   19.6166    0.0000 </r>
       <r>   19.9420    0.0000 </r>
       <r>   20.3093    0.0000 </r>
       <r>   20.3215    0.0000 </r>
       <r>   20.6783    0.0000 </r>
       <r>   21.0809    0.0000 </r>
       <r>   21.4796    0.0000 </r>
       <r>   23.0467    0.0000 </r>
       <r>   23.3705    0.0000 </r>
       <r>   23.5619    0.0000 </r>
       <r>   24.1507    0.0000 </r>
       <r>   24.5576    0.0000 </r>
       <r>   24.9526    0.0000 </r>
       <r>   25.1569    0.0000 </r>
       <r>   26.2154    0.0000 </r>
       <r>   27.2347    0.0000 </r>
       <r>   27.9249    0.0000 </r>
       <r>   28.0114    0.0000 </r>
       <r>   28.9465    0.0000 </r>
       <r>   29.4551    0.0000 </r>
       <r>   29.5544    0.0000 </r>
       <r>   29.6566    0.0000 </r>
       <r>   31.5121    0.0000 </r>
       <r>   31.6577    0.0000 </r>
       <r>   32.4631    0.0000 </r>
       <r>   32.8349    0.0000 </r>
       <r>   33.1874    0.0000 </r>
       <r>   34.0821    0.0000 </r>
       <r>   34.2078    0.0000 </r>
       <r>   34.7418    0.0000 </r>
      </set>
      <set comment="kpoint 5">
       <r>  -12.5361    1.0000 </r>
       <r>  -11.4080    1.0000 </r>
       <r>  -10.8987    1.0000 </r>
       <r>  -10.8249    1.0000 </r>
       <r>  -10.7419    1.0000 </r>
       <r>  -10.3701    1.0000 </r>
       <r>   -0.2369    1.0000 </r>
       <r>   -0.0552    1.0000 </r>
       <r>    0.2149    1.0000 </r>
       <r>    1.0757    1.0000 </r>
       <r>    1.6303    1.0000 </r>
       <r>    2.0270    1.0000 </r>
       <r>    2.6815    1.0000 </r>
       <r>    3.3540    1.0000 </r>
       <r>    3.3917    1.0000 </r>
       <r>    3.6148    1.0000 </r>
       <r>    4.0728    1.0000 </r>
       <r>    4.3258    1.0000 </r>
       <r>    4.4869    1.0000 </r>
       <r>    4.5968    1.0000 </r>
       <r>    5.0090    1.0000 </r>
       <r>    5.1620    1.0000 </r>
       <r>    5.5139    1.0000 </r>
       <r>    5.6069    1.0000 </r>
       <r>   13.9908    0.0000 </r>
       <r>   15.5920    0.0000 </r>
       <r>   15.8520    0.0000 </r>
       <r>   16.1516    0.0000 </r>
       <r>   16.2297    0.0000 </r>
       <r>   16.9156    0.0000 </r>
       <r>   17.3719    0.0000 </r>
       <r>   18.3593    0.0000 </r>
       <r>   18.7376    0.0000 </r>
       <r>   19.0230    0.0000 </r>
       <r>   19.3016    0.0000 </r>
       <r>   19.4393    0.0000 </r>
       <r>   20.2453    0.0000 </r>
       <r>   20.3734    0.0000 </r>
       <r>   20.6363    0.0000 </r>
       <r>   21.3054    0.0000 </r>
       <r>   21.5613    0.0000 </r>
       <r>   21.9336    0.0000 </r>
       <r>   22.3170    0.0000 </r>
       <r>   23.2257    0.0000 </r>
       <r>   23.5776    0.0000 </r>
       <r>   24.9578    0.0000 </r>
       <r>   25.4167    0.0000 </r>
       <r>   25.7171    0.0000 </r>
       <r>   27.0045    0.0000 </r>
       <r>   27.2295    0.0000 </r>
       <r>   27.9588    0.0000 </r>
       <r>   28.2991    0.0000 </r>
       <r>   28.7043    0.0000 </r>
       <r>   29.7874    0.0000 </r>
       <r>   30.6258    0.0000 </r>
       <r>   30.7556    0.0000 </r>
       <r>   31.7764    0.0000 </r>
       <r>   32.7217    0.0000 </r>
       <r>   33.0101    0.0000 </r>
       <r>   33.1625    0.0000 </r>
       <r>   33.8610    0.0000 </r>
       <r>   34.1509    0.0000 </r>
       <r>   34.2524    0.0000 </r>
       <r>   34.6923    0.0000 </r>
      </set>
      <set comment="kpoint 6">
       <r>  -12.0773    1.0000 </r>
       <r>  -11.8886    1.0000 </r>
       <r>  -11.0182    1.0000 </r>
       <r>  -10.7607    1.0000 </r>
       <r>  -10.6649    1.0000 </r>
       <r>  -10.4585    1.0000 </r>
       <r>   -0.2784    1.0000 </r>
       <r>    0.0047    1.0000 </r>
       <r>    0.6318    1.0000 </r>
       <r>    0.8402    1.0000 </r>
       <r>    1.7109    1.0000 </r>
       <r>    2.1464    1.0000 </r>
       <r>    2.4530    1.0000 </r>
       <r>    2.7907    1.0000 </r>
       <r>    3.6226    1.0000 </r>
       <r>    3.8800    1.0000 </r>
       <r>    4.1047    1.0000 </r>
       <r>    4.4845    1.0000 </r>
       <r>    4.6035    1.0000 </r>
       <r>    4.6567    1.0000 </r>
       <r>    4.9227    1.0000 </r>
       <r>    5.1521    1.0000 </r>
       <r>    5.4903    1.0000 </r>
       <r>    5.5918    1.0000 </r>
       <r>   14.9278    0.0000 </r>
       <r>   14.9865    0.0000 </r>
       <r>   15.1395    0.0000 </r>
       <r>   15.7077    0.0000 </r>
       <r>   16.5016    0.0000 </r>
       <r>   16.6564    0.0000 </r>
       <r>   17.8207    0.0000 </r>
       <r>   17.9818    0.0000 </r>
       <r>   18.5188    0.0000 </r>
       <r>   18.8983    0.0000 </r>
       <r>   19.2936    0.0000 </r>
       <r>   19.4610    0.0000 </r>
       <r>   20.3602    0.0000 </r>
       <r>   20.5880    0.0000 </r>
       <r>   20.7209    0.0000 </r>
       <r>   20.8410    0.0000 </r>
       <r>   21.2643    0.0000 </r>
       <r>   21.5341    0.0000 </r>
       <r>   22.7396    0.0000 </r>
       <r>   22.8777    0.0000 </r>
       <r>   24.3413    0.0000 </r>
       <r>   24.7894    0.0000 </r>
       <r>   25.4113    0.0000 </r>
       <r>   26.2245    0.0000 </r>
       <r>   27.2850    0.0000 </r>
       <r>   27.5948    0.0000 </r>
       <r>   28.0748    0.0000 </r>
       <r>   28.4656    0.0000 </r>
       <r>   28.7745    0.0000 </r>
       <r>   29.0346    0.0000 </r>
       <r>   30.0580    0.0000 </r>
       <r>   30.5754    0.0000 </r>
       <r>   31.7472    0.0000 </r>
       <r>   32.6229    0.0000 </r>
       <r>   33.1144    0.0000 </r>
       <r>   33.4025    0.0000 </r>
       <r>   33.5955    0.0000 </r>
       <r>   34.1515    0.0000 </r>
       <r>   34.4702    0.0000 </r>
       <r>   35.0729    0.0000 </r>
      </set>
      <set comment="kpoint 7">
       <r>  -12.6820    1.0000 </r>
       <r>  -11.3126    1.0000 </r>
       <r>  -10.9608    1.0000 </r>
       <r>  -10.6325    1.0000 </r>
       <r>  -10.5767    1.0000 </r>
       <r>  -10.5339    1.0000 </r>
       <r>   -0.4635    1.0000 </r>
       <r>   -0.2055    1.0000 </r>
       <r>    0.1598    1.0000 </r>
       <r>    0.8522    1.0000 </r>
       <r>    1.5013    1.0000 </r>
       <r>    1.8320    1.0000 </r>
       <r>    3.3715    1.0000 </r>
       <r>    3.4758    1.0000 </r>
       <r>    3.6324    1.0000 </r>
       <r>    3.7623    1.0000 </r>
       <r>    4.0897    1.0000 </r>
       <r>    4.0993    1.0000 </r>
       <r>    4.3028    1.0000 </r>
       <r>    4.5310    1.0000 </r>
       <r>    5.0109    1.0000 </r>
       <r>    5.3361    1.0000 </r>
       <r>    5.6502    1.0000 </r>
       <r>    5.7576    1.0000 </r>
       <r>   13.6306    0.0000 </r>
       <r>   15.2488    0.0000 </r>
       <r>   15.7956    0.0000 </r>
       <r>   16.1688    0.0000 </r>
       <r>   16.1696    0.0000 </r>
       <r>   17.2017    0.0000 </r>
       <r>   17.6777    0.0000 </r>
       <r>   18.2923    0.0000 </r>
       <r>   18.4353    0.0000 </r>
       <r>   19.0541    0.0000 </r>
       <r>   19.2539    0.0000 </r>
       <r>   19.7620    0.0000 </r>
       <r>   20.2620    0.0000 </r>
       <r>   20.3082    0.0000 </r>
       <r>   20.5918    0.0000 </r>
       <r>   21.1155    0.0000 </r>
       <r>   21.5062    0.0000 </r>
       <r>   21.7439    0.0000 </r>
       <r>   22.8492    0.0000 </r>
       <r>   23.7038    0.0000 </r>
       <r>   24.2868    0.0000 </r>
       <r>   25.1033    0.0000 </r>
       <r>   25.7677    0.0000 </r>
       <r>   25.9763    0.0000 </r>
       <r>   26.1712    0.0000 </r>
       <r>   26.6609    0.0000 </r>
       <r>   27.7085    0.0000 </r>
       <r>   27.7109    0.0000 </r>
       <r>   28.8291    0.0000 </r>
       <r>   29.3757    0.0000 </r>
       <r>   29.9872    0.0000 </r>
       <r>   30.2317    0.0000 </r>
       <r>   30.9661    0.0000 </r>
       <r>   32.8669    0.0000 </r>
       <r>   33.4559    0.0000 </r>
       <r>   33.8822    0.0000 </r>
       <r>   34.1283    0.0000 </r>
       <r>   34.2974    0.0000 </r>
       <r>   34.3578    0.0000 </r>
       <r>   34.4686    0.0000 </r>
      </set>
      <set comment="kpoint 8">
       <r>  -12.3075    1.0000 </r>
       <r>  -11.2120    1.0000 </r>
       <r>  -11.2109    1.0000 </r>
       <r>  -11.0187    1.0000 </r>
       <r>  -10.8044    1.0000 </r>
       <r>  -10.3518    1.0000 </r>
       <r>   -0.2164    1.0000 </r>
       <r>    0.1289    1.0000 </r>
       <r>    0.9192    1.0000 </r>
       <r>    1.2034    1.0000 </r>
       <r>    1.6079    1.0000 </r>
       <r>    2.0832    1.0000 </r>
       <r>    2.5162    1.0000 </r>
       <r>    2.8548    1.0000 </r>
       <r>    3.3181    1.0000 </r>
       <r>    3.5988    1.0000 </r>
       <r>    4.1986    1.0000 </r>
       <r>    4.3288    1.0000 </r>
       <r>    4.5118    1.0000 </r>
       <r>    4.5121    1.0000 </r>
       <r>    4.7534    1.0000 </r>
       <r>    5.1611    1.0000 </r>
       <r>    5.2847    1.0000 </r>
       <r>    5.5537    1.0000 </r>
       <r>   14.6375    0.0000 </r>
       <r>   15.5768    0.0000 </r>
       <r>   15.5921    0.0000 </r>
       <r>   16.2933    0.0000 </r>
       <r>   16.6068    0.0000 </r>
       <r>   16.9090    0.0000 </r>
       <r>   16.9330    0.0000 </r>
       <r>   18.5059    0.0000 </r>
       <r>   18.6663    0.0000 </r>
       <r>   18.9224    0.0000 </r>
       <r>   19.0436    0.0000 </r>
       <r>   19.1672    0.0000 </r>
       <r>   20.1068    0.0000 </r>
       <r>   20.6152    0.0000 </r>
       <r>   20.9659    0.0000 </r>
       <r>   21.1666    0.0000 </r>
       <r>   21.7212    0.0000 </r>
       <r>   21.9503    0.0000 </r>
       <r>   22.2330    0.0000 </r>
       <r>   22.5302    0.0000 </r>
       <r>   23.5525    0.0000 </r>
       <r>   24.5100    0.0000 </r>
       <r>   25.1916    0.0000 </r>
       <r>   25.8718    0.0000 </r>
       <r>   27.1544    0.0000 </r>
       <r>   27.4751    0.0000 </r>
       <r>   27.7314    0.0000 </r>
       <r>   28.8152    0.0000 </r>
       <r>   29.4933    0.0000 </r>
       <r>   30.1224    0.0000 </r>
       <r>   30.6951    0.0000 </r>
       <r>   30.7817    0.0000 </r>
       <r>   32.0552    0.0000 </r>
       <r>   32.6231    0.0000 </r>
       <r>   32.8765    0.0000 </r>
       <r>   33.6895    0.0000 </r>
       <r>   33.8651    0.0000 </r>
       <r>   34.1923    0.0000 </r>
       <r>   34.4222    0.0000 </r>
       <r>   34.7949    0.0000 </r>
      </set>
      <set comment="kpoint 9">
       <r>  -11.9765    1.0000 </r>
       <r>  -11.5510    1.0000 </r>
       <r>  -11.3685    1.0000 </r>
       <r>  -10.9429    1.0000 </r>
       <r>  -10.7745    1.0000 </r>
       <r>  -10.3488    1.0000 </r>
       <r>    0.1259    1.0000 </r>
       <r>    0.1446    1.0000 </r>
       <r>    0.8539    1.0000 </r>
       <r>    1.2690    1.0000 </r>
       <r>    1.4346    1.0000 </r>
       <r>    1.8944    1.0000 </r>
       <r>    2.3253    1.0000 </r>
       <r>    2.7886    1.0000 </r>
       <r>    3.2243    1.0000 </r>
       <r>    3.7531    1.0000 </r>
       <r>    4.3204    1.0000 </r>
       <r>    4.3623    1.0000 </r>
       <r>    4.5875    1.0000 </r>
       <r>    4.6935    1.0000 </r>
       <r>    4.9495    1.0000 </r>
       <r>    5.1034    1.0000 </r>
       <r>    5.1866    1.0000 </r>
       <r>    5.5898    1.0000 </r>
       <r>   15.0923    0.0000 </r>
       <r>   15.2403    0.0000 </r>
       <r>   15.4913    0.0000 </r>
       <r>   15.8018    0.0000 </r>
       <r>   16.4442    0.0000 </r>
       <r>   16.5020    0.0000 </r>
       <r>   17.1538    0.0000 </r>
       <r>   18.0884    0.0000 </r>
       <r>   18.5429    0.0000 </r>
       <r>   19.2456    0.0000 </r>
       <r>   19.3584    0.0000 </r>
       <r>   19.4116    0.0000 </r>
       <r>   20.0701    0.0000 </r>
       <r>   20.4563    0.0000 </r>
       <r>   20.8524    0.0000 </r>
       <r>   21.2461    0.0000 </r>
       <r>   21.2641    0.0000 </r>
       <r>   21.5184    0.0000 </r>
       <r>   22.7223    0.0000 </r>
       <r>   23.1777    0.0000 </r>
       <r>   23.3220    0.0000 </r>
       <r>   25.2509    0.0000 </r>
       <r>   25.2608    0.0000 </r>
       <r>   25.3266    0.0000 </r>
       <r>   26.9689    0.0000 </r>
       <r>   27.6671    0.0000 </r>
       <r>   28.1717    0.0000 </r>
       <r>   29.0916    0.0000 </r>
       <r>   29.4104    0.0000 </r>
       <r>   30.1187    0.0000 </r>
       <r>   30.5701    0.0000 </r>
       <r>   31.1945    0.0000 </r>
       <r>   31.2453    0.0000 </r>
       <r>   32.2129    0.0000 </r>
       <r>   32.4804    0.0000 </r>
       <r>   33.0958    0.0000 </r>
       <r>   33.8959    0.0000 </r>
       <r>   33.9238    0.0000 </r>
       <r>   34.7191    0.0000 </r>
       <r>   35.2980    0.0000 </r>
      </set>
      <set comment="kpoint 10">
       <r>  -13.0326    1.0000 </r>
       <r>  -11.2476    1.0000 </r>
       <r>  -10.6779    1.0000 </r>
       <r>  -10.6779    1.0000 </r>
       <r>  -10.4284    1.0000 </r>
       <r>  -10.4284    1.0000 </r>
       <r>   -0.4067    1.0000 </r>
       <r>    0.0776    1.0000 </r>
       <r>    0.5918    1.0000 </r>
       <r>    0.5918    1.0000 </r>
       <r>    1.1558    1.0000 </r>
       <r>    1.9370    1.0000 </r>
       <r>    1.9370    1.0000 </r>
       <r>    2.8775    1.0000 </r>
       <r>    3.0934    1.0000 </r>
       <r>    3.7584    1.0000 </r>
       <r>    3.7584    1.0000 </r>
       <r>    4.7377    1.0000 </r>
       <r>    4.7377    1.0000 </r>
       <r>    5.0716    1.0000 </r>
       <r>    5.3809    1.0000 </r>
       <r>    5.3809    1.0000 </r>
       <r>    5.7751    1.0000 </r>
       <r>    5.7751    1.0000 </r>
       <r>   12.4226    0.0000 </r>
       <r>   14.8030    0.0000 </r>
       <r>   16.1557    0.0000 </r>
       <r>   17.2969    0.0000 </r>
       <r>   17.3467    0.0000 </r>
       <r>   17.3467    0.0000 </r>
       <r>   18.0896    0.0000 </r>
       <r>   18.2656    0.0000 </r>
       <r>   18.2656    0.0000 </r>
       <r>   18.7549    0.0000 </r>
       <r>   20.0181    0.0000 </r>
       <r>   20.0181    0.0000 </r>
       <r>   20.2716    0.0000 </r>
       <r>   20.5238    0.0000 </r>
       <r>   20.5238    0.0000 </r>
       <r>   21.4360    0.0000 </r>
       <r>   21.8235    0.0000 </r>
       <r>   23.1185    0.0000 </r>
       <r>   23.4572    0.0000 </r>
       <r>   23.4572    0.0000 </r>
       <r>   23.8148    0.0000 </r>
       <r>   23.8148    0.0000 </r>
       <r>   25.1846    0.0000 </r>
       <r>   26.2683    0.0000 </r>
       <r>   26.2683    0.0000 </r>
       <r>   27.2840    0.0000 </r>
       <r>   27.2840    0.0000 </r>
       <r>   28.7226    0.0000 </r>
       <r>   29.3012    0.0000 </r>
       <r>   29.3012    0.0000 </r>
       <r>   29.4168    0.0000 </r>
       <r>   29.6712    0.0000 </r>
       <r>   29.9837    0.0000 </r>
       <r>   29.9837    0.0000 </r>
       <r>   32.4164    0.0000 </r>
       <r>   32.4164    0.0000 </r>
       <r>   33.7708    0.0000 </r>
       <r>   33.7708    0.0000 </r>
       <r>   34.0607    0.0000 </r>
       <r>   35.0896    0.0000 </r>
      </set>
      <set comment="kpoint 11">
       <r>  -12.7364    1.0000 </r>
       <r>  -11.3999    1.0000 </r>
       <r>  -10.9618    1.0000 </r>
       <r>  -10.6423    1.0000 </r>
       <r>  -10.5821    1.0000 </r>
       <r>  -10.3512    1.0000 </r>
       <r>   -0.0888    1.0000 </r>
       <r>    0.0746    1.0000 </r>
       <r>    0.1007    1.0000 </r>
       <r>    1.2146    1.0000 </r>
       <r>    1.3686    1.0000 </r>
       <r>    2.2759    1.0000 </r>
       <r>    2.2941    1.0000 </r>
       <r>    2.7488    1.0000 </r>
       <r>    3.5199    1.0000 </r>
       <r>    3.5596    1.0000 </r>
       <r>    4.0671    1.0000 </r>
       <r>    4.1776    1.0000 </r>
       <r>    4.5386    1.0000 </r>
       <r>    4.6476    1.0000 </r>
       <r>    5.1147    1.0000 </r>
       <r>    5.2280    1.0000 </r>
       <r>    5.5811    1.0000 </r>
       <r>    5.5922    1.0000 </r>
       <r>   13.4451    0.0000 </r>
       <r>   15.4340    0.0000 </r>
       <r>   16.1892    0.0000 </r>
       <r>   16.3099    0.0000 </r>
       <r>   17.1293    0.0000 </r>
       <r>   17.1596    0.0000 </r>
       <r>   17.8092    0.0000 </r>
       <r>   18.3670    0.0000 </r>
       <r>   18.7008    0.0000 </r>
       <r>   19.1359    0.0000 </r>
       <r>   19.5935    0.0000 </r>
       <r>   19.6304    0.0000 </r>
       <r>   19.9122    0.0000 </r>
       <r>   20.4850    0.0000 </r>
       <r>   20.6597    0.0000 </r>
       <r>   21.0525    0.0000 </r>
       <r>   21.7298    0.0000 </r>
       <r>   22.4568    0.0000 </r>
       <r>   22.5803    0.0000 </r>
       <r>   22.6402    0.0000 </r>
       <r>   23.5882    0.0000 </r>
       <r>   23.8206    0.0000 </r>
       <r>   25.6001    0.0000 </r>
       <r>   26.0371    0.0000 </r>
       <r>   26.9832    0.0000 </r>
       <r>   27.6183    0.0000 </r>
       <r>   27.6804    0.0000 </r>
       <r>   28.8478    0.0000 </r>
       <r>   28.9160    0.0000 </r>
       <r>   29.9809    0.0000 </r>
       <r>   30.8035    0.0000 </r>
       <r>   30.9420    0.0000 </r>
       <r>   31.2391    0.0000 </r>
       <r>   31.3431    0.0000 </r>
       <r>   32.5639    0.0000 </r>
       <r>   33.1422    0.0000 </r>
       <r>   33.5416    0.0000 </r>
       <r>   33.8429    0.0000 </r>
       <r>   33.8453    0.0000 </r>
       <r>   34.5901    0.0000 </r>
      </set>
      <set comment="kpoint 12">
       <r>  -12.1346    1.0000 </r>
       <r>  -11.8629    1.0000 </r>
       <r>  -11.0581    1.0000 </r>
       <r>  -10.8494    1.0000 </r>
       <r>  -10.5512    1.0000 </r>
       <r>  -10.3947    1.0000 </r>
       <r>   -0.4072    1.0000 </r>
       <r>    0.0048    1.0000 </r>
       <r>    0.7855    1.0000 </r>
       <r>    1.1285    1.0000 </r>
       <r>    1.6120    1.0000 </r>
       <r>    2.1282    1.0000 </r>
       <r>    2.7423    1.0000 </r>
       <r>    3.0723    1.0000 </r>
       <r>    3.5168    1.0000 </r>
       <r>    3.6048    1.0000 </r>
       <r>    3.8113    1.0000 </r>
       <r>    4.2147    1.0000 </r>
       <r>    4.6097    1.0000 </r>
       <r>    4.7864    1.0000 </r>
       <r>    4.8918    1.0000 </r>
       <r>    5.0590    1.0000 </r>
       <r>    5.3544    1.0000 </r>
       <r>    5.4585    1.0000 </r>
       <r>   14.8823    0.0000 </r>
       <r>   15.0499    0.0000 </r>
       <r>   15.7744    0.0000 </r>
       <r>   15.8921    0.0000 </r>
       <r>   16.6179    0.0000 </r>
       <r>   17.4261    0.0000 </r>
       <r>   17.6594    0.0000 </r>
       <r>   17.9948    0.0000 </r>
       <r>   18.3635    0.0000 </r>
       <r>   18.7975    0.0000 </r>
       <r>   19.0215    0.0000 </r>
       <r>   19.3801    0.0000 </r>
       <r>   20.4184    0.0000 </r>
       <r>   20.6171    0.0000 </r>
       <r>   20.8530    0.0000 </r>
       <r>   20.9907    0.0000 </r>
       <r>   21.2530    0.0000 </r>
       <r>   21.2571    0.0000 </r>
       <r>   22.3325    0.0000 </r>
       <r>   22.8453    0.0000 </r>
       <r>   23.2729    0.0000 </r>
       <r>   24.3205    0.0000 </r>
       <r>   25.6066    0.0000 </r>
       <r>   27.0172    0.0000 </r>
       <r>   27.0250    0.0000 </r>
       <r>   27.7842    0.0000 </r>
       <r>   28.4223    0.0000 </r>
       <r>   28.4452    0.0000 </r>
       <r>   29.3292    0.0000 </r>
       <r>   30.0187    0.0000 </r>
       <r>   30.3419    0.0000 </r>
       <r>   30.8972    0.0000 </r>
       <r>   31.7854    0.0000 </r>
       <r>   32.8906    0.0000 </r>
       <r>   33.0029    0.0000 </r>
       <r>   33.3512    0.0000 </r>
       <r>   33.3884    0.0000 </r>
       <r>   33.9908    0.0000 </r>
       <r>   34.6159    0.0000 </r>
       <r>   34.6255    0.0000 </r>
      </set>
      <set comment="kpoint 13">
       <r>  -12.5115    1.0000 </r>
       <r>  -11.4269    1.0000 </r>
       <r>  -10.9456    1.0000 </r>
       <r>  -10.8188    1.0000 </r>
       <r>  -10.6324    1.0000 </r>
       <r>  -10.4474    1.0000 </r>
       <r>   -0.5256    1.0000 </r>
       <r>    0.0691    1.0000 </r>
       <r>    0.2488    1.0000 </r>
       <r>    0.9351    1.0000 </r>
       <r>    1.7056    1.0000 </r>
       <r>    1.9334    1.0000 </r>
       <r>    3.0625    1.0000 </r>
       <r>    3.4939    1.0000 </r>
       <r>    3.5120    1.0000 </r>
       <r>    3.7299    1.0000 </r>
       <r>    4.0464    1.0000 </r>
       <r>    4.2286    1.0000 </r>
       <r>    4.2421    1.0000 </r>
       <r>    4.6829    1.0000 </r>
       <r>    4.7914    1.0000 </r>
       <r>    5.2760    1.0000 </r>
       <r>    5.5727    1.0000 </r>
       <r>    5.5994    1.0000 </r>
       <r>   14.1625    0.0000 </r>
       <r>   14.9902    0.0000 </r>
       <r>   15.6500    0.0000 </r>
       <r>   16.0937    0.0000 </r>
       <r>   16.7022    0.0000 </r>
       <r>   17.1540    0.0000 </r>
       <r>   17.8102    0.0000 </r>
       <r>   17.9684    0.0000 </r>
       <r>   18.6784    0.0000 </r>
       <r>   18.7268    0.0000 </r>
       <r>   19.2991    0.0000 </r>
       <r>   19.3108    0.0000 </r>
       <r>   20.1795    0.0000 </r>
       <r>   20.5619    0.0000 </r>
       <r>   20.6964    0.0000 </r>
       <r>   20.9768    0.0000 </r>
       <r>   21.4863    0.0000 </r>
       <r>   21.7340    0.0000 </r>
       <r>   22.3893    0.0000 </r>
       <r>   23.3476    0.0000 </r>
       <r>   24.2163    0.0000 </r>
       <r>   24.8464    0.0000 </r>
       <r>   25.3097    0.0000 </r>
       <r>   25.9158    0.0000 </r>
       <r>   26.9984    0.0000 </r>
       <r>   27.0089    0.0000 </r>
       <r>   27.9964    0.0000 </r>
       <r>   28.4525    0.0000 </r>
       <r>   28.4918    0.0000 </r>
       <r>   29.5848    0.0000 </r>
       <r>   30.2660    0.0000 </r>
       <r>   30.7074    0.0000 </r>
       <r>   30.8197    0.0000 </r>
       <r>   32.9634    0.0000 </r>
       <r>   33.1961    0.0000 </r>
       <r>   33.6102    0.0000 </r>
       <r>   34.0146    0.0000 </r>
       <r>   34.0843    0.0000 </r>
       <r>   34.3412    0.0000 </r>
       <r>   34.6485    0.0000 </r>
      </set>
      <set comment="kpoint 14">
       <r>  -12.5884    1.0000 </r>
       <r>  -11.5532    1.0000 </r>
       <r>  -10.8784    1.0000 </r>
       <r>  -10.7897    1.0000 </r>
       <r>  -10.5869    1.0000 </r>
       <r>  -10.3573    1.0000 </r>
       <r>   -0.0305    1.0000 </r>
       <r>    0.2621    1.0000 </r>
       <r>    0.5365    1.0000 </r>
       <r>    1.2984    1.0000 </r>
       <r>    1.4071    1.0000 </r>
       <r>    2.0985    1.0000 </r>
       <r>    2.2587    1.0000 </r>
       <r>    2.7592    1.0000 </r>
       <r>    3.3492    1.0000 </r>
       <r>    3.6346    1.0000 </r>
       <r>    3.8213    1.0000 </r>
       <r>    4.1786    1.0000 </r>
       <r>    4.1861    1.0000 </r>
       <r>    4.8675    1.0000 </r>
       <r>    4.8892    1.0000 </r>
       <r>    5.3324    1.0000 </r>
       <r>    5.3894    1.0000 </r>
       <r>    5.5490    1.0000 </r>
       <r>   13.8386    0.0000 </r>
       <r>   15.3519    0.0000 </r>
       <r>   16.3744    0.0000 </r>
       <r>   16.7579    0.0000 </r>
       <r>   16.7996    0.0000 </r>
       <r>   17.2587    0.0000 </r>
       <r>   17.4157    0.0000 </r>
       <r>   18.3033    0.0000 </r>
       <r>   18.7673    0.0000 </r>
       <r>   19.3207    0.0000 </r>
       <r>   19.6316    0.0000 </r>
       <r>   19.6351    0.0000 </r>
       <r>   19.8994    0.0000 </r>
       <r>   20.4599    0.0000 </r>
       <r>   20.7535    0.0000 </r>
       <r>   21.3772    0.0000 </r>
       <r>   21.6588    0.0000 </r>
       <r>   21.8730    0.0000 </r>
       <r>   22.0247    0.0000 </r>
       <r>   22.6228    0.0000 </r>
       <r>   23.5254    0.0000 </r>
       <r>   23.5794    0.0000 </r>
       <r>   25.8799    0.0000 </r>
       <r>   25.9086    0.0000 </r>
       <r>   27.3775    0.0000 </r>
       <r>   28.1308    0.0000 </r>
       <r>   28.2395    0.0000 </r>
       <r>   28.5479    0.0000 </r>
       <r>   29.0165    0.0000 </r>
       <r>   30.1604    0.0000 </r>
       <r>   30.4601    0.0000 </r>
       <r>   30.5838    0.0000 </r>
       <r>   31.6097    0.0000 </r>
       <r>   31.9772    0.0000 </r>
       <r>   32.4782    0.0000 </r>
       <r>   32.9072    0.0000 </r>
       <r>   33.4477    0.0000 </r>
       <r>   34.0478    0.0000 </r>
       <r>   34.1192    0.0000 </r>
       <r>   34.6126    0.0000 </r>
      </set>
      <set comment="kpoint 15">
       <r>  -12.1374    1.0000 </r>
       <r>  -11.6489    1.0000 </r>
       <r>  -11.1552    1.0000 </r>
       <r>  -11.0803    1.0000 </r>
       <r>  -10.5222    1.0000 </r>
       <r>  -10.3615    1.0000 </r>
       <r>    0.0407    1.0000 </r>
       <r>    0.2765    1.0000 </r>
       <r>    0.5907    1.0000 </r>
       <r>    1.3388    1.0000 </r>
       <r>    1.7236    1.0000 </r>
       <r>    1.9407    1.0000 </r>
       <r>    2.6468    1.0000 </r>
       <r>    2.7519    1.0000 </r>
       <r>    3.1542    1.0000 </r>
       <r>    3.6823    1.0000 </r>
       <r>    3.8245    1.0000 </r>
       <r>    4.1267    1.0000 </r>
       <r>    4.6874    1.0000 </r>
       <r>    4.7409    1.0000 </r>
       <r>    4.8426    1.0000 </r>
       <r>    5.1430    1.0000 </r>
       <r>    5.2757    1.0000 </r>
       <r>    5.3227    1.0000 </r>
       <r>   14.8985    0.0000 </r>
       <r>   15.6277    0.0000 </r>
       <r>   15.9146    0.0000 </r>
       <r>   16.1072    0.0000 </r>
       <r>   16.5823    0.0000 </r>
       <r>   16.6616    0.0000 </r>
       <r>   17.1876    0.0000 </r>
       <r>   18.0040    0.0000 </r>
       <r>   18.9246    0.0000 </r>
       <r>   19.1147    0.0000 </r>
       <r>   19.2794    0.0000 </r>
       <r>   19.7210    0.0000 </r>
       <r>   20.3772    0.0000 </r>
       <r>   20.4591    0.0000 </r>
       <r>   20.7033    0.0000 </r>
       <r>   20.8239    0.0000 </r>
       <r>   21.3235    0.0000 </r>
       <r>   21.5867    0.0000 </r>
       <r>   22.1470    0.0000 </r>
       <r>   22.2717    0.0000 </r>
       <r>   23.4857    0.0000 </r>
       <r>   23.9982    0.0000 </r>
       <r>   25.7884    0.0000 </r>
       <r>   26.3891    0.0000 </r>
       <r>   27.3100    0.0000 </r>
       <r>   28.2378    0.0000 </r>
       <r>   28.3736    0.0000 </r>
       <r>   29.1837    0.0000 </r>
       <r>   29.5115    0.0000 </r>
       <r>   30.1798    0.0000 </r>
       <r>   30.5834    0.0000 </r>
       <r>   30.9587    0.0000 </r>
       <r>   31.3937    0.0000 </r>
       <r>   32.3254    0.0000 </r>
       <r>   32.7579    0.0000 </r>
       <r>   33.2101    0.0000 </r>
       <r>   33.7998    0.0000 </r>
       <r>   34.1929    0.0000 </r>
       <r>   34.3561    0.0000 </r>
       <r>   34.7082    0.0000 </r>
      </set>
      <set comment="kpoint 16">
       <r>  -12.0660    1.0000 </r>
       <r>  -11.6157    1.0000 </r>
       <r>  -11.1599    1.0000 </r>
       <r>  -11.1092    1.0000 </r>
       <r>  -10.5302    1.0000 </r>
       <r>  -10.4450    1.0000 </r>
       <r>   -0.1098    1.0000 </r>
       <r>    0.3034    1.0000 </r>
       <r>    0.6029    1.0000 </r>
       <r>    0.9794    1.0000 </r>
       <r>    1.6538    1.0000 </r>
       <r>    1.9934    1.0000 </r>
       <r>    2.3260    1.0000 </r>
       <r>    2.7611    1.0000 </r>
       <r>    3.7182    1.0000 </r>
       <r>    3.8362    1.0000 </r>
       <r>    4.1228    1.0000 </r>
       <r>    4.2479    1.0000 </r>
       <r>    4.5936    1.0000 </r>
       <r>    4.6563    1.0000 </r>
       <r>    4.9233    1.0000 </r>
       <r>    5.1446    1.0000 </r>
       <r>    5.4116    1.0000 </r>
       <r>    5.5143    1.0000 </r>
       <r>   14.9433    0.0000 </r>
       <r>   15.0790    0.0000 </r>
       <r>   15.6238    0.0000 </r>
       <r>   15.8194    0.0000 </r>
       <r>   16.0048    0.0000 </r>
       <r>   16.6359    0.0000 </r>
       <r>   17.7763    0.0000 </r>
       <r>   18.0141    0.0000 </r>
       <r>   18.6074    0.0000 </r>
       <r>   19.0722    0.0000 </r>
       <r>   19.2673    0.0000 </r>
       <r>   19.4392    0.0000 </r>
       <r>   20.3332    0.0000 </r>
       <r>   20.5003    0.0000 </r>
       <r>   20.6609    0.0000 </r>
       <r>   20.8888    0.0000 </r>
       <r>   21.2603    0.0000 </r>
       <r>   21.4589    0.0000 </r>
       <r>   22.7939    0.0000 </r>
       <r>   22.9977    0.0000 </r>
       <r>   23.9017    0.0000 </r>
       <r>   24.4946    0.0000 </r>
       <r>   25.6025    0.0000 </r>
       <r>   26.0693    0.0000 </r>
       <r>   27.0353    0.0000 </r>
       <r>   27.9587    0.0000 </r>
       <r>   28.2613    0.0000 </r>
       <r>   28.5099    0.0000 </r>
       <r>   29.2051    0.0000 </r>
       <r>   29.8501    0.0000 </r>
       <r>   29.9587    0.0000 </r>
       <r>   30.5898    0.0000 </r>
       <r>   31.2352    0.0000 </r>
       <r>   32.5135    0.0000 </r>
       <r>   32.7972    0.0000 </r>
       <r>   33.2579    0.0000 </r>
       <r>   33.7828    0.0000 </r>
       <r>   34.3686    0.0000 </r>
       <r>   34.8102    0.0000 </r>
       <r>   35.1725    0.0000 </r>
      </set>
      <set comment="kpoint 17">
       <r>  -11.9894    1.0000 </r>
       <r>  -11.6325    1.0000 </r>
       <r>  -11.3692    1.0000 </r>
       <r>  -10.9958    1.0000 </r>
       <r>  -10.5875    1.0000 </r>
       <r>  -10.3711    1.0000 </r>
       <r>   -0.2165    1.0000 </r>
       <r>    0.5223    1.0000 </r>
       <r>    0.8859    1.0000 </r>
       <r>    1.1304    1.0000 </r>
       <r>    1.8892    1.0000 </r>
       <r>    2.1553    1.0000 </r>
       <r>    2.2259    1.0000 </r>
       <r>    2.8090    1.0000 </r>
       <r>    3.2822    1.0000 </r>
       <r>    3.5626    1.0000 </r>
       <r>    4.0118    1.0000 </r>
       <r>    4.1489    1.0000 </r>
       <r>    4.5339    1.0000 </r>
       <r>    4.7881    1.0000 </r>
[...]
        <r>  0.0009  0.0078  0.0380  0.0028  0.0000  0.0000  0.0000  0.0000  0.0000 </r>
        <r>  0.0009  0.0078  0.0380  0.0028  0.0000  0.0000  0.0000  0.0000  0.0000 </r>
        <r>  0.0009  0.0288  0.0163  0.0035  0.0000  0.0000  0.0000  0.0000  0.0000 </r>
        <r>  0.0003  0.0044  0.0058  0.0026  0.0000  0.0000  0.0000  0.0000  0.0000 </r>
        <r>  0.0010  0.0015  0.0001  0.0036  0.0000  0.0000  0.0000  0.0000  0.0000 </r>
        <r>  0.0010  0.0015  0.0001  0.0036  0.0000  0.0000  0.0000  0.0000  0.0000 </r>
        <r>  0.0003  0.0080  0.0012  0.0036  0.0000  0.0000  0.0000  0.0000  0.0000 </r>
        <r>  0.0003  0.0080  0.0012  0.0036  0.0000  0.0000  0.0000  0.0000  0.0000 </r>
        <r>  0.0003  0.0044  0.0058  0.0026  0.0000  0.0000  0.0000  0.0000  0.0000 </r>
       </set>
       <set comment="band 46">
        <r>  0.0003  0.0203  0.0280  0.0048  0.0000  0.0000  0.0000  0.0000  0.0000 </r>
        <r>  0.0003  0.0212  0.0253  0.0066  0.0000  0.0000  0.0000  0.0000  0.0000 </r>
        <r>  0.0003  0.0212  0.0253  0.0066  0.0000  0.0000  0.0000  0.0000  0.0000 </r>
        <r>  0.0003  0.0203  0.0280  0.0048  0.0000  0.0000  0.0000  0.0000  0.0000 </r>
        <r>  0.0007  0.0049  0.0030  0.0066  0.0000  0.0000  0.0000  0.0000  0.0000 </r>
        <r>  0.0036  0.0024  0.0016  0.0058  0.0000  0.0000  0.0000  0.0000  0.0000 </r>
        <r>  0.0036  0.0024  0.0016  0.0058  0.0000  0.0000  0.0000  0.0000  0.0000 </r>
        <r>  0.0007  0.0099  0.0005  0.0042  0.0000  0.0000  0.0000  0.0000  0.0000 </r>
        <r>  0.0007  0.0099  0.0005  0.0042  0.0000  0.0000  0.0000  0.0000  0.0000 </r>
        <r>  0.0007  0.0049  0.0030  0.0066  0.0000  0.0000  0.0000  0.0000  0.0000 </r>
       </set>
       <set comment="band 47">
        <r>  0.0015  0.0089  0.0381  0.0009  0.0000  0.0000  0.0000  0.0000  0.0000 </r>
        <r>  0.0015  0.0179  0.0227  0.0073  0.0000  0.0000  0.0000  0.0000  0.0000 </r>
        <r>  0.0015  0.0179  0.0227  0.0073  0.0000  0.0000  0.0000  0.0000  0.0000 </r>
        <r>  0.0015  0.0089  0.0381  0.0009  0.0000  0.0000  0.0000  0.0000  0.0000 </r>
        <r>  0.0113  0.0097  0.0017  0.0026  0.0000  0.0000  0.0000  0.0000  0.0000 </r>
        <r>  0.0004  0.0006  0.0002  0.0041  0.0000  0.0000  0.0000  0.0000  0.0000 </r>
        <r>  0.0004  0.0006  0.0002  0.0041  0.0000  0.0000  0.0000  0.0000  0.0000 </r>
        <r>  0.0113  0.0072  0.0027  0.0041  0.0000  0.0000  0.0000  0.0000  0.0000 </r>
        <r>  0.0113  0.0072  0.0027  0.0041  0.0000  0.0000  0.0000  0.0000  0.0000 </r>
        <r>  0.0113  0.0097  0.0017  0.0026  0.0000  0.0000  0.0000  0.0000  0.0000 </r>
       </set>
       <set comment="band 48">
        <r>  0.0003  0.0381  0.0001  0.0100  0.0000  0.0000  0.0000  0.0000  0.0000 </r>
        <r>  0.0003  0.0130  0.0152  0.0200  0.0000  0.0000  0.0000  0.0000  0.0000 </r>
        <r>  0.0003  0.0130  0.0152  0.0200  0.0000  0.0000  0.0000  0.0000  0.0000 </r>
        <r>  0.0003  0.0381  0.0001  0.0100  0.0000  0.0000  0.0000  0.0000  0.0000 </r>
        <r>  0.0022  0.0052  0.0021  0.0002  0.0000  0.0000  0.0000  0.0000  0.0000 </r>
        <r>  0.0135  0.0134  0.0084  0.0035  0.0000  0.0000  0.0000  0.0000  0.0000 </r>
        <r>  0.0135  0.0134  0.0084  0.0035  0.0000  0.0000  0.0000  0.0000  0.0000 </r>
        <r>  0.0022  0.0050  0.0022  0.0002  0.0000  0.0000  0.0000  0.0000  0.0000 </r>
        <r>  0.0022  0.0050  0.0022  0.0002  0.0000  0.0000  0.0000  0.0000  0.0000 </r>
        <r>  0.0022  0.0052  0.0021  0.0002  0.0000  0.0000  0.0000  0.0000  0.0000 </r>
       </set>
       <set comment="band 49">
        <r>  0.0003  0.0190  0.0001  0.0190  0.0000  0.0000  0.0000  0.0000  0.0000 </r>
        <r>  0.0003  0.0007  0.0311  0.0063  0.0000  0.0000  0.0000  0.0000  0.0000 </r>
        <r>  0.0003  0.0007  0.0311  0.0063  0.0000  0.0000  0.0000  0.0000  0.0000 </r>
        <r>  0.0003  0.0190  0.0001  0.0190  0.0000  0.0000  0.0000  0.0000  0.0000 </r>
        <r>  0.0032  0.0000  0.0016  0.0007  0.0000  0.0000  0.0000  0.0000  0.0000 </r>
        <r>  0.0029  0.0095  0.0068  0.0010  0.0000  0.0000  0.0000  0.0000  0.0000 </r>
        <r>  0.0029  0.0095  0.0068  0.0010  0.0000  0.0000  0.0000  0.0000  0.0000 </r>
        <r>  0.0032  0.0017  0.0005  0.0001  0.0000  0.0000  0.0000  0.0000  0.0000 </r>
        <r>  0.0032  0.0017  0.0005  0.0001  0.0000  0.0000  0.0000  0.0000  0.0000 </r>
        <r>  0.0032  0.0000  0.0016  0.0007  0.0000  0.0000  0.0000  0.0000  0.0000 </r>
       </set>
       <set comment="band 50">
        <r>  0.0002  0.0044  0.0164  0.0124  0.0000  0.0000  0.0000  0.0000  0.0000 </r>
        <r>  0.0002  0.0119  0.0037  0.0177  0.0000  0.0000  0.0000  0.0000  0.0000 </r>
        <r>  0.0002  0.0119  0.0037  0.0177  0.0000  0.0000  0.0000  0.0000  0.0000 </r>
        <r>  0.0002  0.0044  0.0164  0.0124  0.0000  0.0000  0.0000  0.0000  0.0000 </r>
        <r>  0.0012  0.0005  0.0008  0.0067  0.0000  0.0000  0.0000  0.0000  0.0000 </r>
        <r>  0.0009  0.0002  0.0004  0.0015  0.0000  0.0000  0.0000  0.0000  0.0000 </r>
        <r>  0.0009  0.0002  0.0004  0.0015  0.0000  0.0000  0.0000  0.0000  0.0000 </r>
        <r>  0.0012  0.0018  0.0010  0.0053  0.0000  0.0000  0.0000  0.0000  0.0000 </r>
        <r>  0.0012  0.0018  0.0010  0.0053  0.0000  0.0000  0.0000  0.0000  0.0000 </r>
        <r>  0.0012  0.0005  0.0008  0.0067  0.0000  0.0000  0.0000  0.0000  0.0000 </r>
       </set>
       <set comment="band 51">
        <r>  0.0019  0.0143  0.0148  0.0012  0.0000  0.0000  0.0000  0.0000  0.0000 </r>
        <r>  0.0019  0.0278  0.0021  0.0003  0.0000  0.0000  0.0000  0.0000  0.0000 </r>
        <r>  0.0019  0.0278  0.0021  0.0003  0.0000  0.0000  0.0000  0.0000  0.0000 </r>
        <r>  0.0019  0.0143  0.0148  0.0012  0.0000  0.0000  0.0000  0.0000  0.0000 </r>
        <r>  0.0020  0.0026  0.0007  0.0004  0.0000  0.0000  0.0000  0.0000  0.0000 </r>
        <r>  0.0021  0.0064  0.0038  0.0004  0.0000  0.0000  0.0000  0.0000  0.0000 </r>
        <r>  0.0021  0.0064  0.0038  0.0004  0.0000  0.0000  0.0000  0.0000  0.0000 </r>
        <r>  0.0020  0.0012  0.0015  0.0010  0.0000  0.0000  0.0000  0.0000  0.0000 </r>
        <r>  0.0020  0.0012  0.0015  0.0010  0.0000  0.0000  0.0000  0.0000  0.0000 </r>
        <r>  0.0020  0.0026  0.0007  0.0004  0.0000  0.0000  0.0000  0.0000  0.0000 </r>
       </set>
       <set comment="band 52">
        <r>  0.0017  0.0001  0.0217  0.0074  0.0000  0.0000  0.0000  0.0000  0.0000 </r>
        <r>  0.0017  0.0211  0.0059  0.0022  0.0000  0.0000  0.0000  0.0000  0.0000 </r>
        <r>  0.0017  0.0211  0.0059  0.0022  0.0000  0.0000  0.0000  0.0000  0.0000 </r>
        <r>  0.0017  0.0001  0.0217  0.0074  0.0000  0.0000  0.0000  0.0000  0.0000 </r>
        <r>  0.0061  0.0043  0.0042  0.0006  0.0000  0.0000  0.0000  0.0000  0.0000 </r>
        <r>  0.0000  0.0020  0.0028  0.0012  0.0000  0.0000  0.0000  0.0000  0.0000 </r>
        <r>  0.0000  0.0020  0.0028  0.0012  0.0000  0.0000  0.0000  0.0000  0.0000 </r>
        <r>  0.0061  0.0080  0.0006  0.0005  0.0000  0.0000  0.0000  0.0000  0.0000 </r>
        <r>  0.0061  0.0080  0.0006  0.0005  0.0000  0.0000  0.0000  0.0000  0.0000 </r>
        <r>  0.0061  0.0043  0.0042  0.0006  0.0000  0.0000  0.0000  0.0000  0.0000 </r>
       </set>
       <set comment="band 53">
        <r>  0.0041  0.0039  0.0049  0.0044  0.0000  0.0000  0.0000  0.0000  0.0000 </r>
        <r>  0.0041  0.0100  0.0008  0.0025  0.0000  0.0000  0.0000  0.0000  0.0000 </r>
        <r>  0.0041  0.0100  0.0008  0.0025  0.0000  0.0000  0.0000  0.0000  0.0000 </r>
        <r>  0.0041  0.0039  0.0049  0.0044  0.0000  0.0000  0.0000  0.0000  0.0000 </r>
        <r>  0.0059  0.0057  0.0007  0.0034  0.0000  0.0000  0.0000  0.0000  0.0000 </r>
        <r>  0.0005  0.0100  0.0025  0.0069  0.0000  0.0000  0.0000  0.0000  0.0000 </r>
        <r>  0.0005  0.0100  0.0025  0.0069  0.0000  0.0000  0.0000  0.0000  0.0000 </r>
        <r>  0.0059  0.0049  0.0010  0.0039  0.0000  0.0000  0.0000  0.0000  0.0000 </r>
        <r>  0.0059  0.0049  0.0010  0.0039  0.0000  0.0000  0.0000  0.0000  0.0000 </r>
        <r>  0.0059  0.0057  0.0007  0.0034  0.0000  0.0000  0.0000  0.0000  0.0000 </r>
       </set>
       <set comment="band 54">
        <r>  0.0015  0.0043  0.0014  0.0059  0.0000  0.0000  0.0000  0.0000  0.0000 </r>
        <r>  0.0015  0.0009  0.0026  0.0080  0.0000  0.0000  0.0000  0.0000  0.0000 </r>
        <r>  0.0015  0.0009  0.0026  0.0080  0.0000  0.0000  0.0000  0.0000  0.0000 </r>
        <r>  0.0015  0.0043  0.0014  0.0059  0.0000  0.0000  0.0000  0.0000  0.0000 </r>
        <r>  0.0031  0.0020  0.0004  0.0010  0.0000  0.0000  0.0000  0.0000  0.0000 </r>
        <r>  0.0119  0.0026  0.0067  0.0051  0.0000  0.0000  0.0000  0.0000  0.0000 </r>
        <r>  0.0119  0.0026  0.0067  0.0051  0.0000  0.0000  0.0000  0.0000  0.0000 </r>
        <r>  0.0031  0.0010  0.0022  0.0002  0.0000  0.0000  0.0000  0.0000  0.0000 </r>
        <r>  0.0031  0.0010  0.0022  0.0002  0.0000  0.0000  0.0000  0.0000  0.0000 </r>
        <r>  0.0031  0.0020  0.0004  0.0010  0.0000  0.0000  0.0000  0.0000  0.0000 </r>
       </set>
       <set comment="band 55">
        <r>  0.0005  0.0124  0.0078  0.0008  0.0000  0.0000  0.0000  0.0000  0.0000 </r>
        <r>  0.0005  0.0006  0.0122  0.0081  0.0000  0.0000  0.0000  0.0000  0.0000 </r>
        <r>  0.0005  0.0006  0.0122  0.0081  0.0000  0.0000  0.0000  0.0000  0.0000 </r>
        <r>  0.0005  0.0124  0.0078  0.0008  0.0000  0.0000  0.0000  0.0000  0.0000 </r>
        <r>  0.0032  0.0027  0.0105  0.0002  0.0000  0.0000  0.0000  0.0000  0.0000 </r>
        <r>  0.0023  0.0043  0.0117  0.0022  0.0000  0.0000  0.0000  0.0000  0.0000 </r>
        <r>  0.0023  0.0043  0.0117  0.0022  0.0000  0.0000  0.0000  0.0000  0.0000 </r>
        <r>  0.0032  0.0042  0.0058  0.0033  0.0000  0.0000  0.0000  0.0000  0.0000 </r>
        <r>  0.0032  0.0042  0.0058  0.0033  0.0000  0.0000  0.0000  0.0000  0.0000 </r>
        <r>  0.0032  0.0027  0.0105  0.0002  0.0000  0.0000  0.0000  0.0000  0.0000 </r>
       </set>
       <set comment="band 56">
        <r>  0.0024  0.0054  0.0047  0.0053  0.0000  0.0000  0.0000  0.0000  0.0000 </r>
        <r>  0.0024  0.0001  0.0029  0.0124  0.0000  0.0000  0.0000  0.0000  0.0000 </r>
        <r>  0.0024  0.0001  0.0029  0.0124  0.0000  0.0000  0.0000  0.0000  0.0000 </r>
        <r>  0.0024  0.0054  0.0047  0.0053  0.0000  0.0000  0.0000  0.0000  0.0000 </r>
        <r>  0.0006  0.0057  0.0070  0.0045  0.0000  0.0000  0.0000  0.0000  0.0000 </r>
        <r>  0.0007  0.0036  0.0013  0.0003  0.0000  0.0000  0.0000  0.0000  0.0000 </r>
        <r>  0.0007  0.0036  0.0013  0.0003  0.0000  0.0000  0.0000  0.0000  0.0000 </r>
        <r>  0.0006  0.0097  0.0054  0.0021  0.0000  0.0000  0.0000  0.0000  0.0000 </r>
        <r>  0.0006  0.0097  0.0054  0.0021  0.0000  0.0000  0.0000  0.0000  0.0000 </r>
        <r>  0.0006  0.0057  0.0070  0.0045  0.0000  0.0000  0.0000  0.0000  0.0000 </r>
       </set>
       <set comment="band 57">
        <r>  0.0106  0.0036  0.0017  0.0319  0.0000  0.0000  0.0000  0.0000  0.0000 </r>
        <r>  0.0106  0.0095  0.0040  0.0237  0.0000  0.0000  0.0000  0.0000  0.0000 </r>
        <r>  0.0106  0.0095  0.0040  0.0237  0.0000  0.0000  0.0000  0.0000  0.0000 </r>
        <r>  0.0106  0.0036  0.0017  0.0319  0.0000  0.0000  0.0000  0.0000  0.0000 </r>
        <r>  0.0006  0.0012  0.0017  0.0028  0.0000  0.0000  0.0000  0.0000  0.0000 </r>
        <r>  0.0019  0.0004  0.0000  0.0005  0.0000  0.0000  0.0000  0.0000  0.0000 </r>
        <r>  0.0019  0.0004  0.0000  0.0005  0.0000  0.0000  0.0000  0.0000  0.0000 </r>
        <r>  0.0006  0.0013  0.0022  0.0023  0.0000  0.0000  0.0000  0.0000  0.0000 </r>
        <r>  0.0006  0.0013  0.0022  0.0023  0.0000  0.0000  0.0000  0.0000  0.0000 </r>
        <r>  0.0006  0.0012  0.0017  0.0028  0.0000  0.0000  0.0000  0.0000  0.0000 </r>
       </set>
       <set comment="band 58">
        <r>  0.0016  0.0121  0.0001  0.0028  0.0000  0.0000  0.0000  0.0000  0.0000 </r>
        <r>  0.0016  0.0039  0.0084  0.0028  0.0000  0.0000  0.0000  0.0000  0.0000 </r>
        <r>  0.0016  0.0039  0.0084  0.0028  0.0000  0.0000  0.0000  0.0000  0.0000 </r>
        <r>  0.0016  0.0121  0.0001  0.0028  0.0000  0.0000  0.0000  0.0000  0.0000 </r>
        <r>  0.0010  0.0061  0.0040  0.0031  0.0000  0.0000  0.0000  0.0000  0.0000 </r>
        <r>  0.0023  0.0029  0.0031  0.0004  0.0000  0.0000  0.0000  0.0000  0.0000 </r>
        <r>  0.0023  0.0029  0.0031  0.0004  0.0000  0.0000  0.0000  0.0000  0.0000 </r>
        <r>  0.0010  0.0007  0.0080  0.0045  0.0000  0.0000  0.0000  0.0000  0.0000 </r>
        <r>  0.0010  0.0007  0.0080  0.0045  0.0000  0.0000  0.0000  0.0000  0.0000 </r>
        <r>  0.0010  0.0061  0.0040  0.0031  0.0000  0.0000  0.0000  0.0000  0.0000 </r>
       </set>
       <set comment="band 59">
        <r>  0.0062  0.0019  0.0042  0.0078  0.0000  0.0000  0.0000  0.0000  0.0000 </r>
        <r>  0.0062  0.0012  0.0043  0.0084  0.0000  0.0000  0.0000  0.0000  0.0000 </r>
        <r>  0.0062  0.0012  0.0043  0.0084  0.0000  0.0000  0.0000  0.0000  0.0000 </r>
        <r>  0.0062  0.0019  0.0042  0.0078  0.0000  0.0000  0.0000  0.0000  0.0000 </r>
        <r>  0.0022  0.0007  0.0038  0.0001  0.0000  0.0000  0.0000  0.0000  0.0000 </r>
        <r>  0.0006  0.0000  0.0004  0.0034  0.0000  0.0000  0.0000  0.0000  0.0000 </r>
        <r>  0.0006  0.0000  0.0004  0.0034  0.0000  0.0000  0.0000  0.0000  0.0000 </r>
        <r>  0.0022  0.0031  0.0004  0.0010  0.0000  0.0000  0.0000  0.0000  0.0000 </r>
        <r>  0.0022  0.0031  0.0004  0.0010  0.0000  0.0000  0.0000  0.0000  0.0000 </r>
        <r>  0.0022  0.0007  0.0038  0.0001  0.0000  0.0000  0.0000  0.0000  0.0000 </r>
       </set>
       <set comment="band 60">
        <r>  0.0029  0.0025  0.0143  0.0168  0.0000  0.0000  0.0000  0.0000  0.0000 </r>
        <r>  0.0029  0.0063  0.0026  0.0247  0.0000  0.0000  0.0000  0.0000  0.0000 </r>
        <r>  0.0029  0.0063  0.0026  0.0247  0.0000  0.0000  0.0000  0.0000  0.0000 </r>
        <r>  0.0029  0.0025  0.0143  0.0168  0.0000  0.0000  0.0000  0.0000  0.0000 </r>
        <r>  0.0007  0.0052  0.0007  0.0018  0.0000  0.0000  0.0000  0.0000  0.0000 </r>
        <r>  0.0009  0.0000  0.0001  0.0014  0.0000  0.0000  0.0000  0.0000  0.0000 </r>
        <r>  0.0009  0.0000  0.0001  0.0014  0.0000  0.0000  0.0000  0.0000  0.0000 </r>
        <r>  0.0007  0.0023  0.0047  0.0005  0.0000  0.0000  0.0000  0.0000  0.0000 </r>
        <r>  0.0007  0.0023  0.0047  0.0005  0.0000  0.0000  0.0000  0.0000  0.0000 </r>
        <r>  0.0007  0.0052  0.0007  0.0018  0.0000  0.0000  0.0000  0.0000  0.0000 </r>
       </set>
       <set comment="band 61">
        <r>  0.0035  0.0007  0.0006  0.0085  0.0000  0.0000  0.0000  0.0000  0.0000 </r>
        <r>  0.0035  0.0021  0.0012  0.0066  0.0000  0.0000  0.0000  0.0000  0.0000 </r>
        <r>  0.0035  0.0021  0.0012  0.0066  0.0000  0.0000  0.0000  0.0000  0.0000 </r>
        <r>  0.0035  0.0007  0.0006  0.0085  0.0000  0.0000  0.0000  0.0000  0.0000 </r>
        <r>  0.0012  0.0039  0.0016  0.0015  0.0000  0.0000  0.0000  0.0000  0.0000 </r>
        <r>  0.0000  0.0000  0.0002  0.0034  0.0000  0.0000  0.0000  0.0000  0.0000 </r>
        <r>  0.0000  0.0000  0.0002  0.0034  0.0000  0.0000  0.0000  0.0000  0.0000 </r>
        <r>  0.0012  0.0017  0.0052  0.0000  0.0000  0.0000  0.0000  0.0000  0.0000 </r>
        <r>  0.0012  0.0017  0.0052  0.0000  0.0000  0.0000  0.0000  0.0000  0.0000 </r>
        <r>  0.0012  0.0039  0.0016  0.0015  0.0000  0.0000  0.0000  0.0000  0.0000 </r>
       </set>
       <set comment="band 62">
        <r>  0.0004  0.0050  0.0010  0.0152  0.0000  0.0000  0.0000  0.0000  0.0000 </r>
        <r>  0.0004  0.0010  0.0144  0.0059  0.0000  0.0000  0.0000  0.0000  0.0000 </r>
        <r>  0.0004  0.0010  0.0144  0.0059  0.0000  0.0000  0.0000  0.0000  0.0000 </r>
        <r>  0.0004  0.0050  0.0010  0.0152  0.0000  0.0000  0.0000  0.0000  0.0000 </r>
        <r>  0.0005  0.0070  0.0004  0.0033  0.0000  0.0000  0.0000  0.0000  0.0000 </r>
        <r>  0.0000  0.0016  0.0001  0.0036  0.0000  0.0000  0.0000  0.0000  0.0000 </r>
        <r>  0.0000  0.0016  0.0001  0.0036  0.0000  0.0000  0.0000  0.0000  0.0000 </r>
        <r>  0.0005  0.0010  0.0075  0.0021  0.0000  0.0000  0.0000  0.0000  0.0000 </r>
        <r>  0.0005  0.0010  0.0075  0.0021  0.0000  0.0000  0.0000  0.0000  0.0000 </r>
        <r>  0.0005  0.0070  0.0004  0.0033  0.0000  0.0000  0.0000  0.0000  0.0000 </r>
       </set>
       <set comment="band 63">
        <r>  0.0004  0.0075  0.0064  0.0015  0.0000  0.0000  0.0000  0.0000  0.0000 </r>
        <r>  0.0004  0.0013  0.0130  0.0011  0.0000  0.0000  0.0000  0.0000  0.0000 </r>
        <r>  0.0004  0.0013  0.0130  0.0011  0.0000  0.0000  0.0000  0.0000  0.0000 </r>
        <r>  0.0004  0.0075  0.0064  0.0015  0.0000  0.0000  0.0000  0.0000  0.0000 </r>
        <r>  0.0017  0.0014  0.0039  0.0037  0.0000  0.0000  0.0000  0.0000  0.0000 </r>
        <r>  0.0032  0.0094  0.0053  0.0009  0.0000  0.0000  0.0000  0.0000  0.0000 </r>
        <r>  0.0032  0.0094  0.0053  0.0009  0.0000  0.0000  0.0000  0.0000  0.0000 </r>
        <r>  0.0017  0.0027  0.0022  0.0040  0.0000  0.0000  0.0000  0.0000  0.0000 </r>
        <r>  0.0017  0.0027  0.0022  0.0040  0.0000  0.0000  0.0000  0.0000  0.0000 </r>
        <r>  0.0017  0.0014  0.0039  0.0037  0.0000  0.0000  0.0000  0.0000  0.0000 </r>
       </set>
       <set comment="band 64">
        <r>  0.0032  0.0011  0.0081  0.0099  0.0000  0.0000  0.0000  0.0000  0.0000 </r>
        <r>  0.0034  0.0041  0.0012  0.0140  0.0000  0.0000  0.0000  0.0000  0.0000 </r>
        <r>  0.0034  0.0040  0.0012  0.0141  0.0000  0.0000  0.0000  0.0000  0.0000 </r>
        <r>  0.0032  0.0011  0.0081  0.0099  0.0000  0.0000  0.0000  0.0000  0.0000 </r>
        <r>  0.0051  0.0066  0.0047  0.0007  0.0000  0.0000  0.0000  0.0000  0.0000 </r>
        <r>  0.0124  0.0060  0.0010  0.0049  0.0000  0.0000  0.0000  0.0000  0.0000 </r>
        <r>  0.0124  0.0060  0.0011  0.0049  0.0000  0.0000  0.0000  0.0000  0.0000 </r>
        <r>  0.0050  0.0083  0.0036  0.0002  0.0000  0.0000  0.0000  0.0000  0.0000 </r>
        <r>  0.0050  0.0083  0.0035  0.0002  0.0000  0.0000  0.0000  0.0000  0.0000 </r>
        <r>  0.0051  0.0066  0.0048  0.0007  0.0000  0.0000  0.0000  0.0000  0.0000 </r>
       </set>
      </set>
     </set>
    </set>
   </array>
  </projected>
 </calculation>
 <structure name="finalpos" >
  <crystal>
   <varray name="basis" >
    <v>       4.58429973      -2.40140328      -0.00013474 </v>
    <v>       4.58429973       2.40140328      -0.00013474 </v>
    <v>       3.32648450       0.00000000       3.96447251 </v>
   </varray>
   <i name="volume">     87.28994519 </i>
   <varray name="rec_basis" >
    <v>       0.10906522      -0.20821159      -0.09151376 </v>
    <v>       0.10906522       0.20821159      -0.09151376 </v>
    <v>       0.00000741      -0.00000000       0.25223415 </v>
   </varray>
  </crystal>
  <varray name="positions" >
   <v>       0.14789778       0.14789778       0.14789778 </v>
   <v>       0.35210222       0.35210222       0.35210222 </v>
   <v>       0.64789778       0.64789778       0.64789778 </v>
   <v>       0.85210222       0.85210222       0.85210222 </v>
   <v>       0.55615989       0.94384011       0.25000000 </v>
   <v>       0.75000000       0.44384011       0.05615989 </v>
   <v>       0.25000000       0.55615989       0.94384011 </v>
   <v>       0.94384011       0.25000000       0.55615989 </v>
   <v>       0.05615989       0.75000000       0.44384011 </v>
   <v>       0.44384011       0.05615989       0.75000000 </v>
  </varray>
 </structure>
</modeling>
