<?xml version="1.0" encoding="ISO-8859-1"?>
<modeling>
 <generator>
  <i name="program" type="string">vasp </i>
  <i name="version" type="string">6.4.3  </i>
  <i name="subversion" type="string">19Mar24 (build Oct 16 2024 18:29:25) complex                          parallel </i>
  <i name="platform" type="string">LinuxIFC </i>
  <i name="date" type="string">2025 08 12 </i>
  <i name="time" type="string">18:38:53 </i>
 </generator>
 <incar>
  <i type="string" name="PREC">Accurate</i>
  <i type="string" name="ALGO">Fast</i>
  <i type="int" name="ISPIN">     2</i>
  <i type="int" name="NELM">   100</i>
  <i type="int" name="IBRION">     2</i>
  <i name="EDIFF">      0.00010000</i>
  <i type="int" name="NSW">    99</i>
  <i type="int" name="ISIF">     3</i>
  <i name="ENCUT">    520.00000000</i>
  <v name="MAGMOM">      0.60000000      0.60000000</v>
  <i type="string" name="LREAL">Auto</i>
  <i type="int" name="ISMEAR">     0</i>
  <i name="SIGMA">      0.05000000</i>
  <i type="logical" name="LWAVE"> F  </i>
  <i type="int" name="LORBIT">    11</i>
  <i type="logical" name="LASPH"> T  </i>
 </incar>
 <primitive_cell>
  <structure name="primitive_cell" >
   <crystal>
    <varray name="basis" >
     <v>      30.01000000       0.00000000       0.00000000 </v>
     <v>       0.00000000      30.00000000       0.00000000 </v>
     <v>       0.00000000       0.00000000      29.99000000 </v>
    </varray>
    <i name="volume">  26999.99700000 </i>
    <varray name="rec_basis" >
     <v>       0.03332223       0.00000000       0.00000000 </v>
     <v>       0.00000000       0.03333333       0.00000000 </v>
     <v>       0.00000000       0.00000000       0.03334445 </v>
    </varray>
   </crystal>
   <varray name="positions" >
    <v>       0.49983339       0.50000000       0.50016672 </v>
    <v>       0.49983339       0.50000000       0.54051350 </v>
   </varray>
  </structure>
  <varray name="primitive_index" >
   <v type="int" >        1 </v>
   <v type="int" >        2 </v>
  </varray>
 </primitive_cell>
 <kpoints>
  <generation param="Gamma">
   <v type="int" name="divisions">       1        1        1 </v>
   <v name="usershift">      0.00000000       0.00000000       0.00000000 </v>
   <v name="genvec1">      1.00000000       0.00000000       0.00000000 </v>
   <v name="genvec2">      0.00000000       1.00000000       0.00000000 </v>
   <v name="genvec3">      0.00000000       0.00000000       1.00000000 </v>
   <v name="shift">      0.00000000       0.00000000       0.00000000 </v>
  </generation>
  <varray name="kpointlist" >
   <v>       0.00000000       0.00000000       0.00000000 </v>
  </varray>
  <varray name="weights" >
   <v>       1.00000000 </v>
  </varray>
 </kpoints>
 <parameters>
  <separator name="general" >
   <i type="string" name="SYSTEM">unknown system</i>
   <i type="logical" name="LCOMPAT"> F  </i>
  </separator>
  <separator name="electronic" >
   <i type="string" name="PREC">accura</i>
   <i name="ENMAX">    520.00000000</i>
   <i name="ENAUG">    605.39200000</i>
   <i name="EDIFF">      0.00010000</i>
   <i type="int" name="IALGO">    68</i>
   <i type="int" name="IWAVPR">    11</i>
   <i type="int" name="NBANDS">    32</i>
   <i type="int" name="NBANDSLOW">    -1</i>
   <i type="int" name="NBANDSHIGH">    -1</i>
   <i name="NELECT">     12.00000000</i>
   <i type="int" name="TURBO">     0</i>
   <i type="int" name="IRESTART">     0</i>
   <i type="int" name="NREBOOT">     0</i>
   <i type="int" name="NMIN">     0</i>
   <i name="EREF">      0.00000000</i>
   <separator name="electronic smearing" >
    <i type="int" name="ISMEAR">     0</i>
    <i name="SIGMA">      0.05000000</i>
    <i name="KSPACING">      0.50000000</i>
    <i type="logical" name="KGAMMA"> T  </i>
    <i type="logical" name="KBLOWUP"> T  </i>
   </separator>
   <separator name="electronic projectors" >
    <i type="logical" name="LREAL"> T  </i>
    <v name="ROPT">     -0.00025000</v>
    <i type="int" name="LMAXPAW">  -100</i>
    <i type="int" name="LMAXMIX">     2</i>
    <i type="logical" name="NLSPLINE"> F  </i>
   </separator>
   <separator name="electronic startup" >
    <i type="int" name="ISTART">     0</i>
    <i type="int" name="ICHARG">     2</i>
    <i type="int" name="INIWAV">     1</i>
   </separator>
   <separator name="electronic spin" >
    <i type="int" name="ISPIN">     2</i>
    <i type="logical" name="LNONCOLLINEAR"> F  </i>
    <v name="MAGMOM">      0.60000000      0.60000000</v>
    <i name="NUPDOWN">     -1.00000000</i>
    <i type="logical" name="LSORBIT"> F  </i>
    <v name="SAXIS">      0.00000000      0.00000000      1.00000000</v>
    <i type="logical" name="LSPIRAL"> F  </i>
    <v name="QSPIRAL">      0.00000000      0.00000000      0.00000000</v>
    <i type="logical" name="LZEROZ"> F  </i>
   </separator>
   <separator name="electronic exchange-correlation" >
    <i type="logical" name="LASPH"> T  </i>
   </separator>
   <separator name="electronic convergence" >
    <i type="int" name="NELM">   100</i>
    <i type="int" name="NELMDL">    -5</i>
    <i type="int" name="NELMIN">     2</i>
    <i name="ENINI">    520.00000000</i>
    <separator name="electronic convergence detail" >
     <i type="logical" name="LDIAG"> T  </i>
     <i type="logical" name="LSUBROT"> F  </i>
     <i name="WEIMIN">      0.00100000</i>
     <i name="EBREAK">      0.00000078</i>
     <i name="DEPER">      0.30000000</i>
     <i type="int" name="NRMM">     4</i>
     <i name="TIME">      0.40000000</i>
    </separator>
   </separator>
   <separator name="electronic mixer" >
    <i name="AMIX">      0.40000000</i>
    <i name="BMIX">      1.00000000</i>
    <i name="AMIN">      0.10000000</i>
    <i name="AMIX_MAG">      1.60000000</i>
    <i name="BMIX_MAG">      1.00000000</i>
    <separator name="electronic mixer details" >
     <i type="int" name="IMIX">     4</i>
     <i type="logical" name="MIXFIRST"> F  </i>
     <i type="int" name="MAXMIX">   -45</i>
     <i name="WC">    100.00000000</i>
     <i type="int" name="INIMIX">     1</i>
     <i type="int" name="MIXPRE">     1</i>
     <i type="int" name="MREMOVE">     5</i>
    </separator>
   </separator>
   <separator name="electronic dipolcorrection" >
    <i type="logical" name="LDIPOL"> F  </i>
    <i type="logical" name="LMONO"> F  </i>
    <i type="int" name="IDIPOL">     0</i>
    <i name="EPSILON">      1.00000000</i>
    <v name="DIPOL">   -100.00000000   -100.00000000   -100.00000000</v>
    <i name="EFIELD">      0.00000000</i>
    <i type="logical" name="LVACPOTAV"> F  </i>
   </separator>
  </separator>
  <separator name="grids" >
   <i type="int" name="NGX">   224</i>
   <i type="int" name="NGY">   224</i>
   <i type="int" name="NGZ">   224</i>
   <i type="int" name="NGXF">   448</i>
   <i type="int" name="NGYF">   448</i>
   <i type="int" name="NGZF">   448</i>
   <i type="logical" name="ADDGRID"> F  </i>
  </separator>
  <separator name="ionic" >
   <i type="int" name="NSW">    99</i>
   <i type="int" name="IBRION">     2</i>
   <i type="int" name="MDALGO">     0</i>
   <i type="int" name="ISIF">     3</i>
   <i name="PSTRESS">      0.00000000</i>
   <i name="EDIFFG">      0.00100000</i>
   <i type="int" name="NFREE">     1</i>
   <i name="POTIM">      0.50000000</i>
   <i name="SMASS">     -3.00000000</i>
   <i name="SCALEE">      1.00000000</i>
  </separator>
  <separator name="ionic md" >
   <i name="TEBEG">      0.00010000</i>
   <i name="TEEND">      0.00010000</i>
   <i type="int" name="NBLOCK">     1</i>
   <i type="int" name="KBLOCK">    99</i>
   <i type="int" name="NPACO">   256</i>
   <i name="APACO">     10.00000000</i>
  </separator>
  <separator name="symmetry" >
   <i type="int" name="ISYM">     2</i>
   <i name="SYMPREC">      0.00001000</i>
  </separator>
  <separator name="dos" >
   <i type="int" name="LORBIT">    11</i>
   <v name="RWIGS">     -1.00000000</v>
   <i type="int" name="NEDOS">   301</i>
   <i name="EMIN">     10.00000000</i>
   <i name="EMAX">    -10.00000000</i>
   <i name="EFERMI">      0.00000000</i>
  </separator>
  <separator name="writing" >
   <i type="int" name="NWRITE">     2</i>
   <i type="logical" name="LWAVE"> F  </i>
   <i type="logical" name="LDOWNSAMPLE"> F  </i>
   <i type="logical" name="LCHARG"> T  </i>
   <i type="logical" name="LPARD"> F  </i>
   <i type="logical" name="LVTOT"> F  </i>
   <i type="logical" name="LVHAR"> F  </i>
   <i type="logical" name="LELF"> F  </i>
   <i type="logical" name="LOPTICS"> F  </i>
   <v name="STM">      0.00000000      0.00000000      0.00000000      0.00000000      0.00000000      0.00000000      0.00000000</v>
  </separator>
  <separator name="performance" >
   <i type="int" name="NPAR">    32</i>
   <i type="int" name="NSIM">     4</i>
   <i type="int" name="NBLK">    -1</i>
   <i type="logical" name="LPLANE"> T  </i>
   <i type="logical" name="LSCALAPACK"> T  </i>
   <i type="logical" name="LSCAAWARE"> F  </i>
   <i type="logical" name="LSCALU"> F  </i>
   <i type="logical" name="LASYNC"> F  </i>
   <i type="logical" name="LORBITALREAL"> F  </i>
  </separator>
  <separator name="miscellaneous" >
   <i type="int" name="IDIOT">     3</i>
   <i type="int" name="PHON_NSTRUCT">    -1</i>
   <i type="logical" name="LMUSIC"> F  </i>
   <v name="POMASS">     16.00000000</v>
   <v name="DARWINR">      0.00000000</v>
   <v name="DARWINV">      1.00000000</v>
   <i type="logical" name="LCORR"> T  </i>
  </separator>
  <i type="logical" name="GGA_COMPAT"> T  </i>
  <i type="logical" name="LBERRY"> F  </i>
  <i type="int" name="ICORELEVEL">     0</i>
  <i type="logical" name="LDAU"> F  </i>
  <i type="int" name="I_CONSTRAINED_M">     0</i>
  <separator name="electronic exchange-correlation" >
   <i type="string" name="GGA    ">PE</i>
   <i type="string" name="XC_C">1</i>
   <i type="int" name="VOSKOWN">     0</i>
   <i type="logical" name="LHFCALC"> F  </i>
   <i type="string" name="PRECFOCK"></i>
   <i type="logical" name="LSYMGRAD"> F  </i>
   <i type="logical" name="LHFONE"> F  </i>
   <i type="logical" name="LRHFCALC"> F  </i>
   <i type="logical" name="LTHOMAS"> F  </i>
   <i type="logical" name="LMODELHF"> F  </i>
   <i type="logical" name="LFOCKACE"> F  </i>
   <i name="ENCUT4O">     -1.00000000</i>
   <i type="int" name="EXXOEP">     0</i>
   <i type="int" name="FOURORBIT">     0</i>
   <i name="AEXX">      0.00000000</i>
   <i name="HFALPHA">      0.00000000</i>
   <i name="MCALPHA">      0.00000000</i>
   <i name="ALDAX">      1.00000000</i>
   <i name="AGGAX">      1.00000000</i>
   <i name="AMGGAX">      1.00000000</i>
   <i name="ALDAC">      1.00000000</i>
   <i name="AGGAC">      1.00000000</i>
   <i name="AMGGAC">      1.00000000</i>
   <i type="int" name="NKREDX">     1</i>
   <i type="int" name="NKREDY">     1</i>
   <i type="int" name="NKREDZ">     1</i>
   <i type="logical" name="SHIFTRED"> F  </i>
   <i type="logical" name="ODDONLY"> F  </i>
   <i type="logical" name="EVENONLY"> F  </i>
   <i type="int" name="LMAXFOCK">     0</i>
   <i type="int" name="NMAXFOCKAE">     0</i>
   <i type="logical" name="LFOCKAEDFT"> F  </i>
   <i name="HFSCREEN">      0.00000000</i>
   <i name="HFSCREENC">      0.00000000</i>
   <i type="int" name="NBANDSGWLOW">     0</i>
  </separator>
  <separator name="vdW DFT" >
   <i type="logical" name="LUSE_VDW"> F  </i>
   <i type="int" name="IVDW_NL">    -1</i>
   <i type="logical" name="LSPIN_VDW"> F  </i>
   <i name="ZAB_VDW">     -0.84910000</i>
   <i name="GAMMA_VDW">      1.39626340</i>
   <i name="ALPHA_VDW">      0.00000000</i>
   <i name="PARAM1">      0.12340000</i>
   <i name="PARAM2">      1.00000000</i>
   <i name="BPARAM">      6.30000000</i>
   <i name="CPARAM">      0.00930000</i>
  </separator>
  <separator name="model GW" >
   <i type="int" name="MODEL_GW">     0</i>
   <i name="MODEL_EPS0">   8099.99910000</i>
   <i name="MODEL_ALPHA">      1.00000000</i>
  </separator>
  <separator name="linear response parameters" >
   <i type="logical" name="LEPSILON"> F  </i>
   <i type="logical" name="LRPA"> F  </i>
   <i type="logical" name="LNABLA"> F  </i>
   <i type="logical" name="LVEL"> F  </i>
   <i name="CSHIFT">      0.10000000</i>
   <i name="OMEGAMAX">     -1.00000000</i>
   <i name="DEG_THRESHOLD">      0.00200000</i>
   <i name="RTIME">     -0.10000000</i>
   <i name="WPLASMAI">      0.00000000</i>
   <v name="DFIELD">      0.00000000      0.00000000      0.00000000</v>
   <v name="WPLASMA">      0.00000000      0.00000000      0.00000000      0.00000000      0.00000000      0.00000000      0.00000000      0.00000000      0.00000000</v>
  </separator>
  <separator name="orbital magnetization" >
   <i type="logical" name="NUCIND"> F  </i>
   <v name="MAGPOS">      0.00000000      0.00000000      0.00000000</v>
   <i type="logical" name="LNICSALL"> T  </i>
   <i type="logical" name="ORBITALMAG"> F  </i>
   <i type="logical" name="LMAGBLOCH"> F  </i>
   <i type="logical" name="LCHIMAG"> F  </i>
   <i type="logical" name="LGAUGE"> T  </i>
   <i type="int" name="MAGATOM">     0</i>
   <v name="MAGDIPOL">      0.00000000      0.00000000      0.00000000</v>
   <v name="AVECCONST">      0.00000000      0.00000000      0.00000000</v>
  </separator>
  <separator name="response functions" >
   <i type="logical" name="LALL_IN_ONE"> F  </i>
   <i type="int" name="IALL_IN_ONE">    -1</i>
   <i type="int" name="NBANDS_WAVE">    -1</i>
   <i type="logical" name="LFINITE_TEMPERATURE"> F  </i>
   <i type="logical" name="LADDER"> F  </i>
   <i type="logical" name="LRPAFORCE"> F  </i>
   <i type="logical" name="LFXC"> F  </i>
   <i type="logical" name="LHARTREE"> T  </i>
   <i type="int" name="IBSE">     0</i>
   <v type="int" name="KPOINT">    -1     0     0     0</v>
   <i type="logical" name="LTCTC"> F  </i>
   <i type="logical" name="LTCTE"> F  </i>
   <i type="logical" name="LTETE"> F  </i>
   <i type="logical" name="LTRIPLET"> F  </i>
   <i type="logical" name="LFXCEPS"> F  </i>
   <i type="logical" name="LFXHEG"> F  </i>
   <i type="int" name="NATURALO">     2</i>
   <i type="logical" name="LHOLEGF"> F  </i>
   <i type="logical" name="L2ORDER"> F  </i>
   <i type="logical" name="LDMP1"> F  </i>
   <i type="logical" name="LMP2LT"> F  </i>
   <i type="logical" name="LSMP2LT"> F  </i>
   <i type="logical" name="LGWLF"> F  </i>
   <i name="ENCUTGW">     -1.60000002</i>
   <i name="ENCUTGWSOFT">     -1.60000002</i>
   <i name="ENCUTLF">     -1.00000000</i>
   <i type="logical" name="ESF_SPLINES"> F  </i>
   <i name="ESF_CONV">      0.01000000</i>
   <i type="int" name="ESF_NINTER">    15</i>
   <i type="int" name="LMAXMP2">    -1</i>
   <i name="SCISSOR">      0.00000000</i>
   <i type="int" name="NOMEGA">     0</i>
   <i type="int" name="NOMEGAR">     0</i>
   <i type="int" name="NBANDSGW">    -1</i>
   <i type="int" name="NBANDSO">    -1</i>
   <i type="int" name="NBANDSV">    -1</i>
   <i type="int" name="NELMGW">     1</i>
   <i type="int" name="NELMHF">     1</i>
   <i type="int" name="DIM">     3</i>
   <i type="int" name="IESPILON">     4</i>
   <i type="int" name="ANTIRES">     0</i>
   <i name="OMEGAMAX">    -30.00000000</i>
   <i name="OMEGAMIN">    -30.00000000</i>
   <i name="OMEGATL">   -200.00000000</i>
   <i type="int" name="OMEGAGRID">     0</i>
   <i name="CSHIFT">     -0.10000000</i>
   <i type="logical" name="LSELFENERGY"> F  </i>
   <i type="logical" name="LSPECTRAL"> F  </i>
   <i type="logical" name="LSPECTRALGW"> F  </i>
   <i type="logical" name="LSINGLES"> F  </i>
   <i type="logical" name="LFERMIGW"> F  </i>
   <i type="logical" name="ODDONLYGW"> F  </i>
   <i type="logical" name="EVENONLYGW"> F  </i>
   <i type="int" name="NKREDLFX">     1</i>
   <i type="int" name="NKREDLFY">     1</i>
   <i type="int" name="NKREDLFZ">     1</i>
   <i type="int" name="MAXMEM">  2800</i>
   <i type="int" name="TELESCOPE">     0</i>
   <i type="int" name="NTAUPAR">    -1</i>
   <i type="int" name="NOMEGAPAR">    -1</i>
   <i name="DAMP_NEWTON">      0.80000001</i>
   <i name="LAMBDA">      1.00000000</i>
  </separator>
  <separator name="External order field" >
   <i name="OFIELD_KAPPA">      0.00000000</i>
   <v name="OFIELD_K">      0.00000000      0.00000000      0.00000000</v>
   <i name="OFIELD_Q6_NEAR">      0.00000000</i>
   <i name="OFIELD_Q6_FAR">      0.00000000</i>
   <i name="OFIELD_A">      0.00000000</i>
  </separator>
  <separator name="optional k-points parameters" >
   <i type="int" name="KPOINTS_OPT_MODE">     1</i>
   <i type="logical" name="LKPOINTS_OPT"> F  </i>
  </separator>
 </parameters>
 <atominfo>
  <atoms>       2 </atoms>
  <types>       1 </types>
  <array name="atoms" >
   <dimension dim="1">ion</dimension>
   <field type="string">element</field>
   <field type="int">atomtype</field>
   <set>
    <rc><c>O </c><c>   1</c></rc>
    <rc><c>O </c><c>   1</c></rc>
   </set>
  </array>
  <array name="atomtypes" >
   <dimension dim="1">type</dimension>
   <field type="int">atomspertype</field>
   <field type="string">element</field>
   <field>mass</field>
   <field>valence</field>
   <field type="string">pseudopotential</field>
   <set>
    <rc><c>   2</c><c>O </c><c>     16.00000000</c><c>      6.00000000</c><c> PAW_PBE O 08Apr2002                    </c></rc>
   </set>
  </array>
 </atominfo>
 <structure name="initialpos" >
  <crystal>
   <varray name="basis" >
    <v>      30.01000000       0.00000000       0.00000000 </v>
    <v>       0.00000000      30.00000000       0.00000000 </v>
    <v>       0.00000000       0.00000000      29.99000000 </v>
   </varray>
   <i name="volume">  26999.99700000 </i>
   <varray name="rec_basis" >
    <v>       0.03332223       0.00000000       0.00000000 </v>
    <v>       0.00000000       0.03333333       0.00000000 </v>
    <v>       0.00000000       0.00000000       0.03334445 </v>
   </varray>
  </crystal>
  <varray name="positions" >
   <v>       0.49983339       0.50000000       0.50016672 </v>
   <v>       0.49983339       0.50000000       0.54051350 </v>
  </varray>
 </structure>
 <calculation>
  <scstep>
   <time name="dav">    9.13    9.19</time>
   <time name="total">   14.55   14.64</time>
   <energy>
    <i name="alphaZ">      0.02058262 </i>
    <i name="ewald">    330.42697877 </i>
    <i name="hartreedc">  -1054.61343302 </i>
    <i name="XCdc">     54.68444856 </i>
    <i name="pawpsdc">    491.90034541 </i>
    <i name="pawaedc">   -495.59629417 </i>
    <i name="eentropy">     -0.00542264 </i>
    <i name="bandstr">    -95.63858344 </i>
    <i name="atom">    864.71597305 </i>
    <i name="e_fr_energy">     95.89459512 </i>
    <i name="e_wo_entrp">     95.90001777 </i>
    <i name="e_0_energy">     95.89730644 </i>
   </energy>
  </scstep>
  <scstep>
   <time name="dav">    7.03    7.07</time>
   <time name="total">    7.03    7.07</time>
   <energy>
    <i name="e_fr_energy">     14.34166243 </i>
    <i name="e_wo_entrp">     14.34431537 </i>
    <i name="e_0_energy">     14.34298890 </i>
   </energy>
  </scstep>
  <scstep>
   <time name="dav">    8.83    8.88</time>
   <time name="total">    8.83    8.88</time>
   <energy>
    <i name="e_fr_energy">     -6.28099119 </i>
    <i name="e_wo_entrp">     -6.28099119 </i>
    <i name="e_0_energy">     -6.28099119 </i>
   </energy>
  </scstep>
  <scstep>
   <time name="dav">    5.18    5.20</time>
   <time name="total">    5.18    5.20</time>
   <energy>
    <i name="e_fr_energy">     -9.64090662 </i>
    <i name="e_wo_entrp">     -9.64090662 </i>
    <i name="e_0_energy">     -9.64090662 </i>
   </energy>
  </scstep>
  <scstep>
   <time name="dav">    5.16    5.19</time>
   <time name="total">    8.09    8.13</time>
   <energy>
    <i name="e_fr_energy">     -9.68167372 </i>
    <i name="e_wo_entrp">     -9.68167372 </i>
    <i name="e_0_energy">     -9.68167372 </i>
   </energy>
  </scstep>
  <scstep>
   <time name="diag">    1.28    1.29</time>
   <time name="diis">    5.17    5.20</time>
   <time name="orth">    0.07    0.07</time>
   <time name="total">   14.82   14.89</time>
   <energy>
    <i name="e_fr_energy">     -8.31770231 </i>
    <i name="e_wo_entrp">     -8.31770231 </i>
    <i name="e_0_energy">     -8.31770231 </i>
   </energy>
  </scstep>
  <scstep>
   <time name="diag">    1.29    1.30</time>
   <time name="diis">    5.10    5.14</time>
   <time name="orth">    0.07    0.07</time>
   <time name="total">   14.76   14.85</time>
   <energy>
    <i name="e_fr_energy">     -9.07908725 </i>
    <i name="e_wo_entrp">     -9.07908725 </i>
    <i name="e_0_energy">     -9.07908725 </i>
   </energy>
  </scstep>
  <scstep>
   <time name="diag">    1.29    1.30</time>
   <time name="diis">    5.14    5.17</time>
   <time name="orth">    0.07    0.07</time>
   <time name="total">   14.76   14.83</time>
   <energy>
    <i name="e_fr_energy">     -9.58476761 </i>
    <i name="e_wo_entrp">     -9.58476761 </i>
    <i name="e_0_energy">     -9.58476761 </i>
   </energy>
  </scstep>
  <scstep>
   <time name="diag">    1.29    1.29</time>
   <time name="diis">    5.64    5.67</time>
   <time name="orth">    0.07    0.07</time>
   <time name="total">   15.55   15.63</time>
   <energy>
    <i name="e_fr_energy">     -9.66992498 </i>
    <i name="e_wo_entrp">     -9.66992498 </i>
    <i name="e_0_energy">     -9.66992498 </i>
   </energy>
  </scstep>
  <scstep>
   <time name="diag">    1.29    1.30</time>
   <time name="diis">    5.18    5.21</time>
   <time name="orth">    0.07    0.07</time>
   <time name="total">   15.01   15.09</time>
   <energy>
    <i name="e_fr_energy">     -9.73000304 </i>
    <i name="e_wo_entrp">     -9.73000304 </i>
    <i name="e_0_energy">     -9.73000304 </i>
   </energy>
  </scstep>
  <scstep>
   <time name="diag">    1.29    1.29</time>
   <time name="diis">    5.10    5.13</time>
   <time name="orth">    0.07    0.07</time>
   <time name="total">   14.92   15.00</time>
   <energy>
    <i name="e_fr_energy">     -9.77833559 </i>
    <i name="e_wo_entrp">     -9.77833559 </i>
    <i name="e_0_energy">     -9.77833559 </i>
   </energy>
  </scstep>
  <scstep>
   <time name="diag">    1.29    1.30</time>
   <time name="diis">    5.60    5.62</time>
   <time name="orth">    0.07    0.07</time>
   <time name="total">   15.26   15.33</time>
   <energy>
    <i name="e_fr_energy">     -9.79030876 </i>
    <i name="e_wo_entrp">     -9.79030876 </i>
    <i name="e_0_energy">     -9.79030876 </i>
   </energy>
  </scstep>
  <scstep>
   <time name="diag">    1.29    1.29</time>
   <time name="diis">    5.09    5.11</time>
   <time name="orth">    0.07    0.07</time>
   <time name="total">   14.75   14.82</time>
   <energy>
    <i name="e_fr_energy">     -9.81726428 </i>
    <i name="e_wo_entrp">     -9.81726428 </i>
    <i name="e_0_energy">     -9.81726428 </i>
   </energy>
  </scstep>
  <scstep>
   <time name="diag">    1.28    1.29</time>
   <time name="diis">    5.22    5.25</time>
   <time name="orth">    0.07    0.07</time>
   <time name="total">   14.98   15.05</time>
   <energy>
    <i name="e_fr_energy">     -9.82672679 </i>
    <i name="e_wo_entrp">     -9.82672679 </i>
    <i name="e_0_energy">     -9.82672679 </i>
   </energy>
  </scstep>
  <scstep>
   <time name="diag">    1.29    1.30</time>
   <time name="diis">    5.12    5.15</time>
   <time name="orth">    0.07    0.07</time>
   <time name="total">   15.13   15.20</time>
   <energy>
    <i name="e_fr_energy">     -9.84531058 </i>
    <i name="e_wo_entrp">     -9.84531058 </i>
    <i name="e_0_energy">     -9.84531058 </i>
   </energy>
  </scstep>
  <scstep>
   <time name="diag">    1.31    1.32</time>
   <time name="diis">    5.60    5.62</time>
   <time name="orth">    0.07    0.07</time>
   <time name="total">   15.70   15.77</time>
   <energy>
    <i name="e_fr_energy">     -9.85467630 </i>
    <i name="e_wo_entrp">     -9.85467630 </i>
    <i name="e_0_energy">     -9.85467630 </i>
   </energy>
  </scstep>
  <scstep>
   <time name="diag">    1.29    1.30</time>
   <time name="diis">    5.07    5.09</time>
   <time name="orth">    0.07    0.07</time>
   <time name="total">   14.90   14.96</time>
   <energy>
    <i name="e_fr_energy">     -9.85731404 </i>
    <i name="e_wo_entrp">     -9.85731404 </i>
    <i name="e_0_energy">     -9.85731404 </i>
   </energy>
  </scstep>
  <scstep>
   <time name="diag">    1.29    1.29</time>
   <time name="diis">    4.90    4.92</time>
   <time name="orth">    0.07    0.07</time>
   <time name="total">   14.78   14.84</time>
   <energy>
    <i name="e_fr_energy">     -9.86188787 </i>
    <i name="e_wo_entrp">     -9.86188787 </i>
    <i name="e_0_energy">     -9.86188787 </i>
   </energy>
  </scstep>
  <scstep>
   <time name="diag">    1.29    1.30</time>
   <time name="diis">    4.86    4.88</time>
   <time name="orth">    0.07    0.07</time>
   <time name="total">   14.88   14.94</time>
   <energy>
    <i name="e_fr_energy">     -9.86316279 </i>
    <i name="e_wo_entrp">     -9.86316279 </i>
    <i name="e_0_energy">     -9.86316279 </i>
   </energy>
  </scstep>
  <scstep>
   <time name="diag">    1.28    1.29</time>
   <time name="diis">    4.85    4.87</time>
   <time name="orth">    0.07    0.07</time>
   <time name="total">   14.89   14.95</time>
   <energy>
    <i name="e_fr_energy">     -9.86407766 </i>
    <i name="e_wo_entrp">     -9.86407766 </i>
    <i name="e_0_energy">     -9.86407766 </i>
   </energy>
  </scstep>
  <scstep>
   <time name="diag">    1.30    1.31</time>
   <time name="diis">    4.98    5.01</time>
   <time name="orth">    0.07    0.07</time>
   <time name="total">   15.20   15.27</time>
   <energy>
    <i name="e_fr_energy">     -9.86498048 </i>
    <i name="e_wo_entrp">     -9.86498048 </i>
    <i name="e_0_energy">     -9.86498048 </i>
   </energy>
  </scstep>
  <scstep>
   <time name="diag">    1.39    1.40</time>
   <time name="diis">    4.84    4.86</time>
   <time name="orth">    0.07    0.07</time>
   <time name="total">   14.78   14.84</time>
   <energy>
    <i name="e_fr_energy">     -9.86533353 </i>
    <i name="e_wo_entrp">     -9.86533353 </i>
    <i name="e_0_energy">     -9.86533353 </i>
   </energy>
  </scstep>
  <scstep>
   <time name="diag">    1.31    1.32</time>
   <time name="diis">    4.88    4.90</time>
   <time name="orth">    0.07    0.08</time>
   <time name="total">   15.07   15.14</time>
   <energy>
    <i name="e_fr_energy">     -9.86576524 </i>
    <i name="e_wo_entrp">     -9.86576524 </i>
    <i name="e_0_energy">     -9.86576524 </i>
   </energy>
  </scstep>
  <scstep>
   <time name="diag">    1.29    1.29</time>
   <time name="diis">    4.69    4.71</time>
   <time name="orth">    0.07    0.07</time>
   <time name="total">   14.61   14.68</time>
   <energy>
    <i name="e_fr_energy">     -9.86588518 </i>
    <i name="e_wo_entrp">     -9.86588518 </i>
    <i name="e_0_energy">     -9.86588518 </i>
   </energy>
  </scstep>
  <scstep>
   <time name="diag">    1.29    1.30</time>
   <time name="diis">    4.72    4.74</time>
   <time name="orth">    0.07    0.07</time>
   <time name="total">   14.55   14.62</time>
   <energy>
    <i name="e_fr_energy">     -9.86609199 </i>
    <i name="e_wo_entrp">     -9.86609199 </i>
    <i name="e_0_energy">     -9.86609199 </i>
   </energy>
  </scstep>
  <scstep>
   <time name="diag">    1.39    1.40</time>
   <time name="diis">    4.72    4.74</time>
   <time name="orth">    0.07    0.07</time>
   <time name="total">   14.77   14.85</time>
   <energy>
    <i name="e_fr_energy">     -9.86623532 </i>
    <i name="e_wo_entrp">     -9.86623532 </i>
    <i name="e_0_energy">     -9.86623532 </i>
   </energy>
  </scstep>
  <scstep>
   <time name="diag">    1.30    1.30</time>
   <time name="diis">    4.68    4.70</time>
   <time name="orth">    0.07    0.07</time>
   <time name="total">   11.40   11.45</time>
   <energy>
    <i name="alphaZ">      0.02058262 </i>
    <i name="ewald">    330.42697877 </i>
    <i name="hartreedc">  -1062.56529623 </i>
    <i name="XCdc">     55.63899304 </i>
    <i name="pawpsdc">    571.23040758 </i>
    <i name="pawaedc">   -574.93104197 </i>
    <i name="eentropy">     -0.00000000 </i>
    <i name="bandstr">   -194.40288524 </i>
    <i name="atom">    864.71597305 </i>
    <i name="e_fr_energy">     -9.86628839 </i>
    <i name="e_wo_entrp">     -9.86628839 </i>
    <i name="e_0_energy">     -9.86628839 </i>
   </energy>
  </scstep>
  <structure>
   <crystal>
    <varray name="basis" >
     <v>      30.01000000       0.00000000       0.00000000 </v>
     <v>       0.00000000      30.00000000       0.00000000 </v>
     <v>       0.00000000       0.00000000      29.99000000 </v>
    </varray>
    <i name="volume">  26999.99700000 </i>
    <varray name="rec_basis" >
     <v>       0.03332223       0.00000000       0.00000000 </v>
     <v>       0.00000000       0.03333333       0.00000000 </v>
     <v>       0.00000000       0.00000000       0.03334445 </v>
    </varray>
   </crystal>
   <varray name="positions" >
    <v>       0.49983339       0.50000000       0.50016672 </v>
    <v>       0.49983339       0.50000000       0.54051350 </v>
   </varray>
  </structure>
  <varray name="forces" >
   <v>       0.00000000       0.00000000      -1.82449400 </v>
   <v>      -0.00000000      -0.00000000       1.82449400 </v>
  </varray>
  <varray name="stress" >
   <v>      -0.00401683       0.00000000      -0.00000000 </v>
   <v>       0.00000000      -0.00400899       0.00000000 </v>
   <v>       0.00000000       0.00000000       0.12644095 </v>
  </varray>
  <energy>
   <i name="e_fr_energy">     -9.86628839 </i>
   <i name="e_wo_entrp">     -9.86628839 </i>
   <i name="e_0_energy">     -9.86628839 </i>
  </energy>
  <time name="totalsc">  524.72  527.91</time>
 </calculation>
 <calculation>
  <scstep>
   <time name="dav">    7.26    7.31</time>
   <time name="total">   15.71   15.80</time>
   <energy>
    <i name="alphaZ">      0.01964046 </i>
    <i name="ewald">    259.34648844 </i>
    <i name="hartreedc">   -998.93214151 </i>
    <i name="XCdc">     54.25138642 </i>
    <i name="pawpsdc">    571.23183970 </i>
    <i name="pawaedc">   -574.93250248 </i>
    <i name="eentropy">     -0.00000000 </i>
    <i name="bandstr">   -184.43111687 </i>
    <i name="atom">    864.71597305 </i>
    <i name="e_fr_energy">     -8.73043279 </i>
    <i name="e_wo_entrp">     -8.73043279 </i>
    <i name="e_0_energy">     -8.73043279 </i>
   </energy>
  </scstep>
  <scstep>
   <time name="diag">    1.29    1.30</time>
   <time name="diis">    5.11    5.13</time>
   <time name="orth">    0.07    0.07</time>
   <time name="total">   14.70   14.77</time>
   <energy>
    <i name="e_fr_energy">     -8.72210178 </i>
    <i name="e_wo_entrp">     -8.72210178 </i>
    <i name="e_0_energy">     -8.72210178 </i>
   </energy>
  </scstep>
  <scstep>
   <time name="diag">    1.30    1.31</time>
   <time name="diis">    5.14    5.17</time>
   <time name="orth">    0.07    0.07</time>
   <time name="total">   14.88   14.95</time>
   <energy>
    <i name="e_fr_energy">     -8.78213563 </i>
    <i name="e_wo_entrp">     -8.78213563 </i>
    <i name="e_0_energy">     -8.78213563 </i>
   </energy>
  </scstep>
  <scstep>
   <time name="diag">    1.28    1.29</time>
   <time name="diis">    5.13    5.15</time>
   <time name="orth">    0.07    0.07</time>
   <time name="total">   14.97   15.04</time>
   <energy>
    <i name="e_fr_energy">     -8.77413587 </i>
    <i name="e_wo_entrp">     -8.77413587 </i>
    <i name="e_0_energy">     -8.77413587 </i>
   </energy>
  </scstep>
  <scstep>
   <time name="diag">    1.30    1.30</time>
   <time name="diis">    5.15    5.17</time>
   <time name="orth">    0.07    0.07</time>
   <time name="total">   15.09   15.16</time>
   <energy>
    <i name="e_fr_energy">     -8.77937114 </i>
    <i name="e_wo_entrp">     -8.77937114 </i>
    <i name="e_0_energy">     -8.77937114 </i>
   </energy>
  </scstep>
  <scstep>
   <time name="diag">    1.29    1.30</time>
   <time name="diis">    5.14    5.16</time>
   <time name="orth">    0.07    0.07</time>
   <time name="total">   15.00   15.07</time>
   <energy>
    <i name="e_fr_energy">     -8.78213044 </i>
    <i name="e_wo_entrp">     -8.78213044 </i>
    <i name="e_0_energy">     -8.78213044 </i>
   </energy>
  </scstep>
  <scstep>
   <time name="diag">    1.28    1.29</time>
   <time name="diis">    5.12    5.15</time>
   <time name="orth">    0.07    0.07</time>
   <time name="total">   15.05   15.12</time>
   <energy>
    <i name="e_fr_energy">     -8.78340947 </i>
    <i name="e_wo_entrp">     -8.78340947 </i>
    <i name="e_0_energy">     -8.78340947 </i>
   </energy>
  </scstep>
  <scstep>
   <time name="diag">    1.29    1.30</time>
   <time name="diis">    4.98    5.01</time>
   <time name="orth">    0.07    0.07</time>
   <time name="total">   14.85   14.92</time>
   <energy>
    <i name="e_fr_energy">     -8.78408549 </i>
    <i name="e_wo_entrp">     -8.78408549 </i>
    <i name="e_0_energy">     -8.78408549 </i>
   </energy>
  </scstep>
  <scstep>
   <time name="diag">    1.29    1.30</time>
   <time name="diis">    5.01    5.03</time>
   <time name="orth">    0.07    0.07</time>
   <time name="total">   14.93   15.00</time>
   <energy>
    <i name="e_fr_energy">     -8.78503230 </i>
    <i name="e_wo_entrp">     -8.78503230 </i>
    <i name="e_0_energy">     -8.78503230 </i>
   </energy>
  </scstep>
  <scstep>
   <time name="diag">    1.38    1.39</time>
   <time name="diis">    5.07    5.09</time>
   <time name="orth">    0.07    0.07</time>
   <time name="total">   14.90   14.97</time>
   <energy>
    <i name="e_fr_energy">     -8.78527299 </i>
    <i name="e_wo_entrp">     -8.78527299 </i>
    <i name="e_0_energy">     -8.78527299 </i>
   </energy>
  </scstep>
  <scstep>
   <time name="diag">    1.30    1.31</time>
   <time name="diis">    4.92    4.94</time>
   <time name="orth">    0.07    0.07</time>
   <time name="total">   14.80   14.86</time>
   <energy>
    <i name="e_fr_energy">     -8.78575363 </i>
    <i name="e_wo_entrp">     -8.78575363 </i>
    <i name="e_0_energy">     -8.78575363 </i>
   </energy>
  </scstep>
  <scstep>
   <time name="diag">    1.27    1.28</time>
   <time name="diis">    4.81    4.83</time>
   <time name="orth">    0.07    0.07</time>
   <time name="total">   14.45   14.52</time>
   <energy>
    <i name="e_fr_energy">     -8.78586933 </i>
    <i name="e_wo_entrp">     -8.78586933 </i>
    <i name="e_0_energy">     -8.78586933 </i>
   </energy>
  </scstep>
  <scstep>
   <time name="diag">    1.29    1.30</time>
   <time name="diis">    4.82    4.84</time>
   <time name="orth">    0.07    0.07</time>
   <time name="total">   11.50   11.55</time>
   <energy>
    <i name="alphaZ">      0.01964046 </i>
    <i name="ewald">    259.34648844 </i>
    <i name="hartreedc">   -998.53367445 </i>
    <i name="XCdc">     54.14522892 </i>
    <i name="pawpsdc">    516.55939472 </i>
    <i name="pawaedc">   -520.04272478 </i>
    <i name="eentropy">     -0.00000000 </i>
    <i name="bandstr">   -184.99627255 </i>
    <i name="atom">    864.71597305 </i>
    <i name="e_fr_energy">     -8.78594618 </i>
    <i name="e_wo_entrp">     -8.78594618 </i>
    <i name="e_0_energy">     -8.78594618 </i>
   </energy>
  </scstep>
  <structure>
   <crystal>
    <varray name="basis" >
     <v>      29.96099912       0.00000000      -0.00000000 </v>
     <v>       0.00000000      29.95111110       0.00000000 </v>
     <v>       0.00000000       0.00000000      31.53141139 </v>
    </varray>
    <i name="volume">  28295.19170549 </i>
    <varray name="rec_basis" >
     <v>       0.03337672       0.00000000      -0.00000000 </v>
     <v>       0.00000000       0.03338774       0.00000000 </v>
     <v>       0.00000000      -0.00000000       0.03171441 </v>
    </varray>
   </crystal>
   <varray name="positions" >
    <v>       0.49983339       0.50000000       0.49723180 </v>
    <v>       0.49983339       0.50000000       0.54344843 </v>
   </varray>
  </structure>
  <varray name="forces" >
   <v>       0.00000000      -0.00000000       7.59592205 </v>
   <v>      -0.00000000       0.00000000      -7.59592205 </v>
  </varray>
  <varray name="stress" >
   <v>      -0.00380408       0.00000000      -0.00000000 </v>
   <v>       0.00000000      -0.00378626       0.00000000 </v>
   <v>       0.00000000       0.00000000      -0.63280903 </v>
  </varray>
  <energy>
   <i name="e_fr_energy">     -8.78594618 </i>
   <i name="e_wo_entrp">     -8.78594618 </i>
   <i name="e_0_energy">     -8.78594618 </i>
  </energy>
  <time name="totalsc">  208.54  209.55</time>
 </calculation>
 <calculation>
  <scstep>
   <time name="dav">    5.38    5.41</time>
   <time name="total">   13.60   13.67</time>
   <energy>
    <i name="alphaZ">      0.02048084 </i>
    <i name="ewald">    319.39918155 </i>
    <i name="hartreedc">  -1053.49055946 </i>
    <i name="XCdc">     55.44784474 </i>
    <i name="pawpsdc">    516.54923543 </i>
    <i name="pawaedc">   -520.03232583 </i>
    <i name="eentropy">     -0.00000000 </i>
    <i name="bandstr">   -192.33760171 </i>
    <i name="atom">    864.71597305 </i>
    <i name="e_fr_energy">     -9.72777140 </i>
    <i name="e_wo_entrp">     -9.72777140 </i>
    <i name="e_0_energy">     -9.72777140 </i>
   </energy>
  </scstep>
  <scstep>
   <time name="diag">    1.29    1.30</time>
   <time name="diis">    5.14    5.16</time>
   <time name="orth">    0.07    0.07</time>
   <time name="total">   14.74   14.81</time>
   <energy>
    <i name="e_fr_energy">     -9.79901844 </i>
    <i name="e_wo_entrp">     -9.79901844 </i>
    <i name="e_0_energy">     -9.79901844 </i>
   </energy>
  </scstep>
  <scstep>
   <time name="diag">    1.29    1.29</time>
   <time name="diis">    5.12    5.14</time>
   <time name="orth">    0.07    0.07</time>
   <time name="total">   14.69   14.76</time>
   <energy>
    <i name="e_fr_energy">     -9.88082516 </i>
    <i name="e_wo_entrp">     -9.88082516 </i>
    <i name="e_0_energy">     -9.88082516 </i>
   </energy>
  </scstep>
  <scstep>
   <time name="diag">    1.29    1.30</time>
   <time name="diis">    5.40    5.44</time>
   <time name="orth">    0.07    0.07</time>
   <time name="total">   15.05   15.13</time>
   <energy>
    <i name="e_fr_energy">     -9.87366438 </i>
    <i name="e_wo_entrp">     -9.87366438 </i>
    <i name="e_0_energy">     -9.87366438 </i>
   </energy>
  </scstep>
  <scstep>
   <time name="diag">    1.29    1.30</time>
   <time name="diis">    5.11    5.14</time>
   <time name="orth">    0.07    0.07</time>
   <time name="total">   14.70   14.78</time>
   <energy>
    <i name="e_fr_energy">     -9.87865492 </i>
    <i name="e_wo_entrp">     -9.87865492 </i>
    <i name="e_0_energy">     -9.87865492 </i>
   </energy>
  </scstep>
  <scstep>
   <time name="diag">    1.30    1.30</time>
   <time name="diis">    5.13    5.16</time>
   <time name="orth">    0.07    0.07</time>
   <time name="total">   14.72   14.80</time>
   <energy>
    <i name="e_fr_energy">     -9.88008059 </i>
    <i name="e_wo_entrp">     -9.88008059 </i>
    <i name="e_0_energy">     -9.88008059 </i>
   </energy>
  </scstep>
  <scstep>
   <time name="diag">    1.29    1.29</time>
   <time name="diis">    5.13    5.16</time>
   <time name="orth">    0.07    0.07</time>
   <time name="total">   14.72   14.80</time>
   <energy>
    <i name="e_fr_energy">     -9.88171921 </i>
    <i name="e_wo_entrp">     -9.88171921 </i>
    <i name="e_0_energy">     -9.88171921 </i>
   </energy>
  </scstep>
  <scstep>
   <time name="diag">    1.40    1.41</time>
   <time name="diis">    5.13    5.16</time>
   <time name="orth">    0.07    0.07</time>
   <time name="total">   15.01   15.09</time>
   <energy>
    <i name="e_fr_energy">     -9.88204745 </i>
    <i name="e_wo_entrp">     -9.88204745 </i>
    <i name="e_0_energy">     -9.88204745 </i>
   </energy>
  </scstep>
  <scstep>
   <time name="diag">    1.29    1.29</time>
   <time name="diis">    5.09    5.11</time>
   <time name="orth">    0.07    0.07</time>
   <time name="total">   14.70   14.77</time>
   <energy>
    <i name="e_fr_energy">     -9.88263002 </i>
    <i name="e_wo_entrp">     -9.88263002 </i>
    <i name="e_0_energy">     -9.88263002 </i>
   </energy>
  </scstep>
  <scstep>
   <time name="diag">    1.28    1.29</time>
   <time name="diis">    4.90    4.93</time>
   <time name="orth">    0.07    0.07</time>
   <time name="total">   14.52   14.58</time>
   <energy>
    <i name="e_fr_energy">     -9.88289418 </i>
    <i name="e_wo_entrp">     -9.88289418 </i>
    <i name="e_0_energy">     -9.88289418 </i>
   </energy>
  </scstep>
  <scstep>
   <time name="diag">    1.29    1.30</time>
   <time name="diis">    4.86    4.88</time>
   <time name="orth">    0.07    0.07</time>
   <time name="total">   14.48   14.55</time>
   <energy>
    <i name="e_fr_energy">     -9.88300276 </i>
    <i name="e_wo_entrp">     -9.88300276 </i>
    <i name="e_0_energy">     -9.88300276 </i>
   </energy>
  </scstep>
  <scstep>
   <time name="diag">    1.27    1.28</time>
   <time name="diis">    4.88    4.90</time>
   <time name="orth">    0.07    0.07</time>
   <time name="total">   14.92   15.00</time>
   <energy>
    <i name="e_fr_energy">     -9.88329418 </i>
    <i name="e_wo_entrp">     -9.88329418 </i>
    <i name="e_0_energy">     -9.88329418 </i>
   </energy>
  </scstep>
  <scstep>
   <time name="diag">    1.31    1.31</time>
   <time name="diis">    4.87    4.89</time>
   <time name="orth">    0.07    0.07</time>
   <time name="total">   11.69   11.75</time>
   <energy>
    <i name="alphaZ">      0.02048084 </i>
    <i name="ewald">    319.39918155 </i>
    <i name="hartreedc">  -1052.98497029 </i>
    <i name="XCdc">     55.39529382 </i>
    <i name="pawpsdc">    560.69351846 </i>
    <i name="pawaedc">   -564.34528668 </i>
    <i name="eentropy">     -0.00000000 </i>
    <i name="bandstr">   -192.77756035 </i>
    <i name="atom">    864.71597305 </i>
    <i name="e_fr_energy">     -9.88336962 </i>
    <i name="e_wo_entrp">     -9.88336962 </i>
    <i name="e_0_energy">     -9.88336962 </i>
   </energy>
  </scstep>
  <structure>
   <crystal>
    <varray name="basis" >
     <v>      30.00493912       0.00000000      -0.00000000 </v>
     <v>       0.00000000      29.99495068       0.00000000 </v>
     <v>       0.00000000       0.00000000      30.14919920 </v>
    </varray>
    <i name="volume">  27134.17885896 </i>
    <varray name="rec_basis" >
     <v>       0.03332785       0.00000000      -0.00000000 </v>
     <v>       0.00000000       0.03333894       0.00000000 </v>
     <v>       0.00000000      -0.00000000       0.03316838 </v>
    </varray>
   </crystal>
   <varray name="positions" >
    <v>       0.49983339       0.50000000       0.49973494 </v>
    <v>       0.49983339       0.50000000       0.54094528 </v>
   </varray>
  </structure>
  <varray name="forces" >
   <v>      -0.00000000      -0.00000000       0.64755657 </v>
   <v>       0.00000000       0.00000000      -0.64755657 </v>
  </varray>
  <varray name="stress" >
   <v>      -0.00365388       0.00000000       0.00000000 </v>
   <v>       0.00000000      -0.00365081       0.00000000 </v>
   <v>       0.00000000       0.00000000      -0.05144049 </v>
  </varray>
  <energy>
   <i name="e_fr_energy">     -9.88336962 </i>
   <i name="e_wo_entrp">     -9.88336962 </i>
   <i name="e_0_energy">     -9.88336962 </i>
  </energy>
  <time name="totalsc">  205.04  206.08</time>
 </calculation>
 <calculation>
  <scstep>
   <time name="dav">    8.92    8.97</time>
   <time name="total">   17.12   17.20</time>
   <energy>
    <i name="alphaZ">      0.02050811 </i>
    <i name="ewald">    321.59969915 </i>
    <i name="hartreedc">  -1054.86322273 </i>
    <i name="XCdc">     55.44067168 </i>
    <i name="pawpsdc">    560.69884984 </i>
    <i name="pawaedc">   -564.35072085 </i>
    <i name="eentropy">     -0.00000000 </i>
    <i name="bandstr">   -193.14803522 </i>
    <i name="atom">    864.71597305 </i>
    <i name="e_fr_energy">     -9.88627697 </i>
    <i name="e_wo_entrp">     -9.88627697 </i>
    <i name="e_0_energy">     -9.88627697 </i>
   </energy>
  </scstep>
  <scstep>
   <time name="diag">    1.49    1.50</time>
   <time name="diis">    5.13    5.16</time>
   <time name="orth">    0.07    0.07</time>
   <time name="total">   14.90   14.97</time>
   <energy>
    <i name="e_fr_energy">     -9.88601727 </i>
    <i name="e_wo_entrp">     -9.88601727 </i>
    <i name="e_0_energy">     -9.88601727 </i>
   </energy>
  </scstep>
  <scstep>
   <time name="diag">    1.29    1.29</time>
   <time name="diis">    4.90    4.92</time>
   <time name="orth">    0.07    0.07</time>
   <time name="total">   14.48   14.55</time>
   <energy>
    <i name="e_fr_energy">     -9.88626547 </i>
    <i name="e_wo_entrp">     -9.88626547 </i>
    <i name="e_0_energy">     -9.88626547 </i>
   </energy>
  </scstep>
  <scstep>
   <time name="diag">    1.29    1.30</time>
   <time name="diis">    4.83    4.86</time>
   <time name="orth">    0.07    0.07</time>
   <time name="total">   11.61   11.67</time>
   <energy>
    <i name="alphaZ">      0.02050811 </i>
    <i name="ewald">    321.59969915 </i>
    <i name="hartreedc">  -1054.94276212 </i>
    <i name="XCdc">     55.44574698 </i>
    <i name="pawpsdc">    562.77060347 </i>
    <i name="pawaedc">   -566.43286802 </i>
    <i name="eentropy">     -0.00000000 </i>
    <i name="bandstr">   -193.06319098 </i>
    <i name="atom">    864.71597305 </i>
    <i name="e_fr_energy">     -9.88629036 </i>
    <i name="e_wo_entrp">     -9.88629036 </i>
    <i name="e_0_energy">     -9.88629036 </i>
   </energy>
  </scstep>
  <structure>
   <crystal>
    <varray name="basis" >
     <v>      30.00630047       0.00000000      -0.00000000 </v>
     <v>       0.00000000      29.99630893       0.00000000 </v>
     <v>       0.00000000       0.00000000      30.10637533 </v>
    </varray>
    <i name="volume">  27098.09388053 </i>
    <varray name="rec_basis" >
     <v>       0.03332633       0.00000000      -0.00000000 </v>
     <v>       0.00000000       0.03333744       0.00000000 </v>
     <v>       0.00000000      -0.00000000       0.03321556 </v>
    </varray>
   </crystal>
   <varray name="positions" >
    <v>       0.49983339       0.50000000       0.49981605 </v>
    <v>       0.49983339       0.50000000       0.54086418 </v>
   </varray>
  </structure>
  <varray name="forces" >
   <v>       0.00000000       0.00000000       0.18821727 </v>
   <v>      -0.00000000      -0.00000000      -0.18821727 </v>
  </varray>
  <varray name="stress" >
   <v>      -0.00476459       0.00000000       0.00000000 </v>
   <v>       0.00000000      -0.00476016       0.00000000 </v>
   <v>       0.00000000      -0.00000000      -0.01853763 </v>
  </varray>
  <energy>
   <i name="e_fr_energy">     -9.88629036 </i>
   <i name="e_wo_entrp">     -9.88629036 </i>
   <i name="e_0_energy">     -9.88629036 </i>
  </energy>
  <time name="totalsc">   74.75   75.12</time>
  <eigenvalues>
   <array>
    <dimension dim="1">band</dimension>
    <dimension dim="2">kpoint</dimension>
    <dimension dim="3">spin</dimension>
    <field>eigene</field>
    <field>occ</field>
    <set>
     <set comment="spin 1">
      <set comment="kpoint 1">
       <r>  -32.5057    1.0000 </r>
       <r>  -20.7218    1.0000 </r>
       <r>  -13.4364    1.0000 </r>
       <r>  -13.3189    1.0000 </r>
       <r>  -13.3189    1.0000 </r>
       <r>   -7.0477    1.0000 </r>
       <r>   -7.0477    1.0000 </r>
       <r>   -0.2111    0.0000 </r>
       <r>   -0.0017    0.0000 </r>
       <r>    0.1239    0.0000 </r>
       <r>    0.1248    0.0000 </r>
       <r>    0.1249    0.0000 </r>
       <r>    0.1287    0.0000 </r>
       <r>    0.1473    0.0000 </r>
       <r>    0.2057    0.0000 </r>
       <r>    0.2662    0.0000 </r>
       <r>    0.2668    0.0000 </r>
       <r>    0.2668    0.0000 </r>
       <r>    0.2972    0.0000 </r>
       <r>    0.2973    0.0000 </r>
       <r>    0.2991    0.0000 </r>
       <r>    0.3019    0.0000 </r>
       <r>    0.3019    0.0000 </r>
       <r>    0.3058    0.0000 </r>
       <r>    0.3098    0.0000 </r>
       <r>    0.3169    0.0000 </r>
       <r>    0.4202    0.0000 </r>
       <r>    0.4334    0.0000 </r>
       <r>    0.4365    0.0000 </r>
       <r>    0.4365    0.0000 </r>
       <r>    0.4662    0.0000 </r>
       <r>    0.4772    0.0000 </r>
      </set>
     </set>
     <set comment="spin 2">
      <set comment="kpoint 1">
       <r>  -31.2891    1.0000 </r>
       <r>  -18.9246    1.0000 </r>
       <r>  -12.5433    1.0000 </r>
       <r>  -11.4546    1.0000 </r>
       <r>  -11.4546    1.0000 </r>
       <r>   -4.7438    0.0000 </r>
       <r>   -4.7438    0.0000 </r>
       <r>   -0.1231    0.0000 </r>
       <r>    0.0143    0.0000 </r>
       <r>    0.1261    0.0000 </r>
       <r>    0.1262    0.0000 </r>
       <r>    0.1300    0.0000 </r>
       <r>    0.1310    0.0000 </r>
       <r>    0.1482    0.0000 </r>
       <r>    0.2157    0.0000 </r>
       <r>    0.2734    0.0000 </r>
       <r>    0.2734    0.0000 </r>
       <r>    0.2920    0.0000 </r>
       <r>    0.2968    0.0000 </r>
       <r>    0.2970    0.0000 </r>
       <r>    0.3015    0.0000 </r>
       <r>    0.3018    0.0000 </r>
       <r>    0.3018    0.0000 </r>
       <r>    0.3048    0.0000 </r>
       <r>    0.3097    0.0000 </r>
       <r>    0.3185    0.0000 </r>
       <r>    0.4319    0.0000 </r>
       <r>    0.4438    0.0000 </r>
       <r>    0.4438    0.0000 </r>
       <r>    0.4654    0.0000 </r>
       <r>    0.4675    0.0000 </r>
       <r>    0.4687    0.0000 </r>
      </set>
     </set>
    </set>
   </array>
  </eigenvalues>
  <separator name="orbital magnetization" >
   <v name="MAGDIPOLOUT">      0.00000000      0.00000000      0.00000000</v>
  </separator>
  <dos>
   <i name="efermi">     -6.80787044 </i>
   <total>
    <array>
     <dimension dim="1">gridpoints</dimension>
     <dimension dim="2">spin</dimension>
     <field>energy</field>
     <field>total</field>
     <field>integrated</field>
     <set>
      <set comment="spin 1">
       <r>   -34.1548     0.0000     0.0000 </r>
       <r>   -34.0339     0.0000     0.0000 </r>
       <r>   -33.9129     0.0000     0.0000 </r>
       <r>   -33.7920     0.0000     0.0000 </r>
       <r>   -33.6710     0.0000     0.0000 </r>
       <r>   -33.5501     0.0000     0.0000 </r>
       <r>   -33.4292     0.0000     0.0000 </r>
       <r>   -33.3082     0.0000     0.0000 </r>
       <r>   -33.1873     0.0000     0.0000 </r>
       <r>   -33.0664     0.0000     0.0000 </r>
       <r>   -32.9454     0.0000     0.0000 </r>
       <r>   -32.8245     0.0000     0.0000 </r>
       <r>   -32.7036     0.0000     0.0000 </r>
       <r>   -32.5826     0.1220     0.0147 </r>
       <r>   -32.4617     7.2639     0.8932 </r>
       <r>   -32.3407     0.8829     1.0000 </r>
       <r>   -32.2198     0.0000     1.0000 </r>
       <r>   -32.0989     0.0000     1.0000 </r>
       <r>   -31.9779     0.0000     1.0000 </r>
       <r>   -31.8570     0.0000     1.0000 </r>
       <r>   -31.7361     0.0000     1.0000 </r>
       <r>   -31.6151     0.0000     1.0000 </r>
       <r>   -31.4942     0.0000     1.0000 </r>
       <r>   -31.3732     0.0000     1.0000 </r>
       <r>   -31.2523     0.0000     1.0000 </r>
       <r>   -31.1314     0.0000     1.0000 </r>
       <r>   -31.0104     0.0000     1.0000 </r>
       <r>   -30.8895     0.0000     1.0000 </r>
       <r>   -30.7686     0.0000     1.0000 </r>
       <r>   -30.6476     0.0000     1.0000 </r>
       <r>   -30.5267     0.0000     1.0000 </r>
       <r>   -30.4057     0.0000     1.0000 </r>
       <r>   -30.2848     0.0000     1.0000 </r>
       <r>   -30.1639     0.0000     1.0000 </r>
       <r>   -30.0429     0.0000     1.0000 </r>
       <r>   -29.9220     0.0000     1.0000 </r>
       <r>   -29.8011     0.0000     1.0000 </r>
       <r>   -29.6801     0.0000     1.0000 </r>
       <r>   -29.5592     0.0000     1.0000 </r>
       <r>   -29.4382     0.0000     1.0000 </r>
       <r>   -29.3173     0.0000     1.0000 </r>
       <r>   -29.1964     0.0000     1.0000 </r>
       <r>   -29.0754     0.0000     1.0000 </r>
       <r>   -28.9545     0.0000     1.0000 </r>
       <r>   -28.8336     0.0000     1.0000 </r>
       <r>   -28.7126     0.0000     1.0000 </r>
       <r>   -28.5917     0.0000     1.0000 </r>
       <r>   -28.4707     0.0000     1.0000 </r>
       <r>   -28.3498     0.0000     1.0000 </r>
       <r>   -28.2289     0.0000     1.0000 </r>
       <r>   -28.1079     0.0000     1.0000 </r>
       <r>   -27.9870     0.0000     1.0000 </r>
       <r>   -27.8661     0.0000     1.0000 </r>
       <r>   -27.7451     0.0000     1.0000 </r>
       <r>   -27.6242     0.0000     1.0000 </r>
       <r>   -27.5033     0.0000     1.0000 </r>
       <r>   -27.3823     0.0000     1.0000 </r>
       <r>   -27.2614     0.0000     1.0000 </r>
       <r>   -27.1404     0.0000     1.0000 </r>
       <r>   -27.0195     0.0000     1.0000 </r>
       <r>   -26.8986     0.0000     1.0000 </r>
       <r>   -26.7776     0.0000     1.0000 </r>
       <r>   -26.6567     0.0000     1.0000 </r>
       <r>   -26.5358     0.0000     1.0000 </r>
       <r>   -26.4148     0.0000     1.0000 </r>
       <r>   -26.2939     0.0000     1.0000 </r>
       <r>   -26.1729     0.0000     1.0000 </r>
       <r>   -26.0520     0.0000     1.0000 </r>
       <r>   -25.9311     0.0000     1.0000 </r>
       <r>   -25.8101     0.0000     1.0000 </r>
       <r>   -25.6892     0.0000     1.0000 </r>
       <r>   -25.5683     0.0000     1.0000 </r>
       <r>   -25.4473     0.0000     1.0000 </r>
       <r>   -25.3264     0.0000     1.0000 </r>
       <r>   -25.2054     0.0000     1.0000 </r>
       <r>   -25.0845     0.0000     1.0000 </r>
       <r>   -24.9636     0.0000     1.0000 </r>
       <r>   -24.8426     0.0000     1.0000 </r>
       <r>   -24.7217     0.0000     1.0000 </r>
       <r>   -24.6008     0.0000     1.0000 </r>
       <r>   -24.4798     0.0000     1.0000 </r>
       <r>   -24.3589     0.0000     1.0000 </r>
       <r>   -24.2379     0.0000     1.0000 </r>
       <r>   -24.1170     0.0000     1.0000 </r>
       <r>   -23.9961     0.0000     1.0000 </r>
       <r>   -23.8751     0.0000     1.0000 </r>
       <r>   -23.7542     0.0000     1.0000 </r>
       <r>   -23.6333     0.0000     1.0000 </r>
       <r>   -23.5123     0.0000     1.0000 </r>
       <r>   -23.3914     0.0000     1.0000 </r>
       <r>   -23.2704     0.0000     1.0000 </r>
       <r>   -23.1495     0.0000     1.0000 </r>
       <r>   -23.0286     0.0000     1.0000 </r>
       <r>   -22.9076     0.0000     1.0000 </r>
       <r>   -22.7867     0.0000     1.0000 </r>
       <r>   -22.6658     0.0000     1.0000 </r>
       <r>   -22.5448     0.0000     1.0000 </r>
       <r>   -22.4239     0.0000     1.0000 </r>
       <r>   -22.3030     0.0000     1.0000 </r>
       <r>   -22.1820     0.0000     1.0000 </r>
       <r>   -22.0611     0.0000     1.0000 </r>
       <r>   -21.9401     0.0000     1.0000 </r>
       <r>   -21.8192     0.0000     1.0000 </r>
       <r>   -21.6983     0.0000     1.0000 </r>
       <r>   -21.5773     0.0000     1.0000 </r>
       <r>   -21.4564     0.0000     1.0000 </r>
       <r>   -21.3355     0.0000     1.0000 </r>
       <r>   -21.2145     0.0000     1.0000 </r>
       <r>   -21.0936     0.0000     1.0000 </r>
       <r>   -20.9726     0.0000     1.0000 </r>
       <r>   -20.8517     0.0010     1.0001 </r>
       <r>   -20.7308     3.3035     1.3996 </r>
       <r>   -20.6098     4.9579     1.9992 </r>
       <r>   -20.4889     0.0064     2.0000 </r>
       <r>   -20.3680     0.0000     2.0000 </r>
       <r>   -20.2470     0.0000     2.0000 </r>
       <r>   -20.1261     0.0000     2.0000 </r>
       <r>   -20.0051     0.0000     2.0000 </r>
       <r>   -19.8842     0.0000     2.0000 </r>
       <r>   -19.7633     0.0000     2.0000 </r>
       <r>   -19.6423     0.0000     2.0000 </r>
       <r>   -19.5214     0.0000     2.0000 </r>
       <r>   -19.4005     0.0000     2.0000 </r>
       <r>   -19.2795     0.0000     2.0000 </r>
       <r>   -19.1586     0.0000     2.0000 </r>
       <r>   -19.0376     0.0000     2.0000 </r>
       <r>   -18.9167     0.0000     2.0000 </r>
       <r>   -18.7958     0.0000     2.0000 </r>
       <r>   -18.6748     0.0000     2.0000 </r>
       <r>   -18.5539     0.0000     2.0000 </r>
       <r>   -18.4330     0.0000     2.0000 </r>
       <r>   -18.3120     0.0000     2.0000 </r>
       <r>   -18.1911     0.0000     2.0000 </r>
       <r>   -18.0701     0.0000     2.0000 </r>
       <r>   -17.9492     0.0000     2.0000 </r>
       <r>   -17.8283     0.0000     2.0000 </r>
       <r>   -17.7073     0.0000     2.0000 </r>
       <r>   -17.5864     0.0000     2.0000 </r>
       <r>   -17.4655     0.0000     2.0000 </r>
       <r>   -17.3445     0.0000     2.0000 </r>
       <r>   -17.2236     0.0000     2.0000 </r>
       <r>   -17.1027     0.0000     2.0000 </r>
       <r>   -16.9817     0.0000     2.0000 </r>
       <r>   -16.8608     0.0000     2.0000 </r>
       <r>   -16.7398     0.0000     2.0000 </r>
       <r>   -16.6189     0.0000     2.0000 </r>
       <r>   -16.4980     0.0000     2.0000 </r>
       <r>   -16.3770     0.0000     2.0000 </r>
       <r>   -16.2561     0.0000     2.0000 </r>
       <r>   -16.1352     0.0000     2.0000 </r>
       <r>   -16.0142     0.0000     2.0000 </r>
       <r>   -15.8933     0.0000     2.0000 </r>
       <r>   -15.7723     0.0000     2.0000 </r>
       <r>   -15.6514     0.0000     2.0000 </r>
       <r>   -15.5305     0.0000     2.0000 </r>
       <r>   -15.4095     0.0000     2.0000 </r>
       <r>   -15.2886     0.0000     2.0000 </r>
       <r>   -15.1677     0.0000     2.0000 </r>
       <r>   -15.0467     0.0000     2.0000 </r>
       <r>   -14.9258     0.0000     2.0000 </r>
       <r>   -14.8048     0.0000     2.0000 </r>
       <r>   -14.6839     0.0000     2.0000 </r>
       <r>   -14.5630     0.0000     2.0000 </r>
       <r>   -14.4420     0.0000     2.0000 </r>
       <r>   -14.3211     0.0000     2.0000 </r>
       <r>   -14.2002     0.0000     2.0000 </r>
       <r>   -14.0792     0.0000     2.0000 </r>
       <r>   -13.9583     0.0000     2.0000 </r>
       <r>   -13.8373     0.0000     2.0000 </r>
       <r>   -13.7164     0.0000     2.0000 </r>
       <r>   -13.5955     0.0000     2.0000 </r>
       <r>   -13.4745     1.1633     2.1407 </r>
       <r>   -13.3536     9.7270     3.3170 </r>
       <r>   -13.2327    13.7944     4.9853 </r>
       <r>   -13.1117     0.1216     5.0000 </r>
       <r>   -12.9908     0.0000     5.0000 </r>
       <r>   -12.8698     0.0000     5.0000 </r>
       <r>   -12.7489     0.0000     5.0000 </r>
       <r>   -12.6280     0.0000     5.0000 </r>
       <r>   -12.5070     0.0000     5.0000 </r>
       <r>   -12.3861     0.0000     5.0000 </r>
       <r>   -12.2652     0.0000     5.0000 </r>
       <r>   -12.1442     0.0000     5.0000 </r>
       <r>   -12.0233     0.0000     5.0000 </r>
       <r>   -11.9024     0.0000     5.0000 </r>
       <r>   -11.7814     0.0000     5.0000 </r>
       <r>   -11.6605     0.0000     5.0000 </r>
       <r>   -11.5395     0.0000     5.0000 </r>
       <r>   -11.4186     0.0000     5.0000 </r>
       <r>   -11.2977     0.0000     5.0000 </r>
       <r>   -11.1767     0.0000     5.0000 </r>
       <r>   -11.0558     0.0000     5.0000 </r>
       <r>   -10.9349     0.0000     5.0000 </r>
       <r>   -10.8139     0.0000     5.0000 </r>
       <r>   -10.6930     0.0000     5.0000 </r>
       <r>   -10.5720     0.0000     5.0000 </r>
       <r>   -10.4511     0.0000     5.0000 </r>
       <r>   -10.3302     0.0000     5.0000 </r>
       <r>   -10.2092     0.0000     5.0000 </r>
       <r>   -10.0883     0.0000     5.0000 </r>
       <r>    -9.9674     0.0000     5.0000 </r>
       <r>    -9.8464     0.0000     5.0000 </r>
       <r>    -9.7255     0.0000     5.0000 </r>
       <r>    -9.6045     0.0000     5.0000 </r>
       <r>    -9.4836     0.0000     5.0000 </r>
       <r>    -9.3627     0.0000     5.0000 </r>
       <r>    -9.2417     0.0000     5.0000 </r>
       <r>    -9.1208     0.0000     5.0000 </r>
       <r>    -8.9999     0.0000     5.0000 </r>
       <r>    -8.8789     0.0000     5.0000 </r>
       <r>    -8.7580     0.0000     5.0000 </r>
       <r>    -8.6370     0.0000     5.0000 </r>
       <r>    -8.5161     0.0000     5.0000 </r>
       <r>    -8.3952     0.0000     5.0000 </r>
       <r>    -8.2742     0.0000     5.0000 </r>
       <r>    -8.1533     0.0000     5.0000 </r>
       <r>    -8.0324     0.0000     5.0000 </r>
       <r>    -7.9114     0.0000     5.0000 </r>
       <r>    -7.7905     0.0000     5.0000 </r>
       <r>    -7.6695     0.0000     5.0000 </r>
       <r>    -7.5486     0.0000     5.0000 </r>
       <r>    -7.4277     0.0000     5.0000 </r>
       <r>    -7.3067     0.0000     5.0000 </r>
       <r>    -7.1858     0.0008     5.0001 </r>
       <r>    -7.0649     5.1816     5.6267 </r>
       <r>    -6.9439    11.3275     6.9967 </r>
       <r>    -6.8230     0.0276     7.0000 </r>
       <r>    -6.7021     0.0000     7.0000 </r>
       <r>    -6.5811     0.0000     7.0000 </r>
       <r>    -6.4602     0.0000     7.0000 </r>
       <r>    -6.3392     0.0000     7.0000 </r>
       <r>    -6.2183     0.0000     7.0000 </r>
       <r>    -6.0974     0.0000     7.0000 </r>
       <r>    -5.9764     0.0000     7.0000 </r>
       <r>    -5.8555     0.0000     7.0000 </r>
       <r>    -5.7346     0.0000     7.0000 </r>
       <r>    -5.6136     0.0000     7.0000 </r>
       <r>    -5.4927     0.0000     7.0000 </r>
       <r>    -5.3717     0.0000     7.0000 </r>
       <r>    -5.2508     0.0000     7.0000 </r>
       <r>    -5.1299     0.0000     7.0000 </r>
       <r>    -5.0089     0.0000     7.0000 </r>
       <r>    -4.8880     0.0000     7.0000 </r>
       <r>    -4.7671     0.0000     7.0000 </r>
       <r>    -4.6461     0.0000     7.0000 </r>
       <r>    -4.5252     0.0000     7.0000 </r>
       <r>    -4.4042     0.0000     7.0000 </r>
       <r>    -4.2833     0.0000     7.0000 </r>
       <r>    -4.1624     0.0000     7.0000 </r>
       <r>    -4.0414     0.0000     7.0000 </r>
       <r>    -3.9205     0.0000     7.0000 </r>
       <r>    -3.7996     0.0000     7.0000 </r>
       <r>    -3.6786     0.0000     7.0000 </r>
       <r>    -3.5577     0.0000     7.0000 </r>
       <r>    -3.4367     0.0000     7.0000 </r>
       <r>    -3.3158     0.0000     7.0000 </r>
       <r>    -3.1949     0.0000     7.0000 </r>
       <r>    -3.0739     0.0000     7.0000 </r>
       <r>    -2.9530     0.0000     7.0000 </r>
       <r>    -2.8321     0.0000     7.0000 </r>
       <r>    -2.7111     0.0000     7.0000 </r>
       <r>    -2.5902     0.0000     7.0000 </r>
       <r>    -2.4692     0.0000     7.0000 </r>
       <r>    -2.3483     0.0000     7.0000 </r>
       <r>    -2.2274     0.0000     7.0000 </r>
       <r>    -2.1064     0.0000     7.0000 </r>
       <r>    -1.9855     0.0000     7.0000 </r>
       <r>    -1.8646     0.0000     7.0000 </r>
       <r>    -1.7436     0.0000     7.0000 </r>
       <r>    -1.6227     0.0000     7.0000 </r>
       <r>    -1.5018     0.0000     7.0000 </r>
       <r>    -1.3808     0.0000     7.0000 </r>
       <r>    -1.2599     0.0000     7.0000 </r>
       <r>    -1.1389     0.0000     7.0000 </r>
       <r>    -1.0180     0.0000     7.0000 </r>
       <r>    -0.8971     0.0000     7.0000 </r>
       <r>    -0.7761     0.0000     7.0000 </r>
       <r>    -0.6552     0.0000     7.0000 </r>
       <r>    -0.5343     0.0000     7.0000 </r>
       <r>    -0.4133     0.0000     7.0000 </r>
       <r>    -0.2924     0.0890     7.0108 </r>
       <r>    -0.1714     7.0970     7.8691 </r>
       <r>    -0.0505     1.7750     8.0837 </r>
       <r>     0.0704     9.5029     9.2330 </r>
       <r>     0.1914    40.8021    14.1675 </r>
       <r>     0.3123    68.5984    22.4636 </r>
       <r>     0.4332    48.6734    28.3500 </r>
       <r>     0.5542    29.9955    31.9775 </r>
       <r>     0.6751     0.1857    32.0000 </r>
       <r>     0.7961     0.0000    32.0000 </r>
       <r>     0.9170     0.0000    32.0000 </r>
       <r>     1.0379     0.0000    32.0000 </r>
       <r>     1.1589     0.0000    32.0000 </r>
       <r>     1.2798     0.0000    32.0000 </r>
       <r>     1.4007     0.0000    32.0000 </r>
       <r>     1.5217     0.0000    32.0000 </r>
       <r>     1.6426     0.0000    32.0000 </r>
       <r>     1.7636     0.0000    32.0000 </r>
       <r>     1.8845     0.0000    32.0000 </r>
       <r>     2.0054     0.0000    32.0000 </r>
       <r>     2.1264     0.0000    32.0000 </r>
      </set>
      <set comment="spin 2">
       <r>   -34.1548     0.0000     0.0000 </r>
       <r>   -34.0339     0.0000     0.0000 </r>
       <r>   -33.9129     0.0000     0.0000 </r>
       <r>   -33.7920     0.0000     0.0000 </r>
       <r>   -33.6710     0.0000     0.0000 </r>
       <r>   -33.5501     0.0000     0.0000 </r>
       <r>   -33.4292     0.0000     0.0000 </r>
       <r>   -33.3082     0.0000     0.0000 </r>
       <r>   -33.1873     0.0000     0.0000 </r>
       <r>   -33.0664     0.0000     0.0000 </r>
       <r>   -32.9454     0.0000     0.0000 </r>
       <r>   -32.8245     0.0000     0.0000 </r>
       <r>   -32.7036     0.0000     0.0000 </r>
       <r>   -32.5826     0.0000     0.0000 </r>
       <r>   -32.4617     0.0000     0.0000 </r>
       <r>   -32.3407     0.0000     0.0000 </r>
       <r>   -32.2198     0.0000     0.0000 </r>
       <r>   -32.0989     0.0000     0.0000 </r>
       <r>   -31.9779     0.0000     0.0000 </r>
       <r>   -31.8570     0.0000     0.0000 </r>
       <r>   -31.7361     0.0000     0.0000 </r>
       <r>   -31.6151     0.0000     0.0000 </r>
       <r>   -31.4942     0.0000     0.0000 </r>
       <r>   -31.3732     0.0717     0.0087 </r>
       <r>   -31.2523     6.9659     0.8511 </r>
       <r>   -31.1314     1.2311     1.0000 </r>
       <r>   -31.0104     0.0000     1.0000 </r>
       <r>   -30.8895     0.0000     1.0000 </r>
       <r>   -30.7686     0.0000     1.0000 </r>
       <r>   -30.6476     0.0000     1.0000 </r>
       <r>   -30.5267     0.0000     1.0000 </r>
       <r>   -30.4057     0.0000     1.0000 </r>
       <r>   -30.2848     0.0000     1.0000 </r>
       <r>   -30.1639     0.0000     1.0000 </r>
       <r>   -30.0429     0.0000     1.0000 </r>
       <r>   -29.9220     0.0000     1.0000 </r>
       <r>   -29.8011     0.0000     1.0000 </r>
       <r>   -29.6801     0.0000     1.0000 </r>
       <r>   -29.5592     0.0000     1.0000 </r>
       <r>   -29.4382     0.0000     1.0000 </r>
       <r>   -29.3173     0.0000     1.0000 </r>
       <r>   -29.1964     0.0000     1.0000 </r>
       <r>   -29.0754     0.0000     1.0000 </r>
       <r>   -28.9545     0.0000     1.0000 </r>
       <r>   -28.8336     0.0000     1.0000 </r>
       <r>   -28.7126     0.0000     1.0000 </r>
       <r>   -28.5917     0.0000     1.0000 </r>
       <r>   -28.4707     0.0000     1.0000 </r>
       <r>   -28.3498     0.0000     1.0000 </r>
       <r>   -28.2289     0.0000     1.0000 </r>
       <r>   -28.1079     0.0000     1.0000 </r>
       <r>   -27.9870     0.0000     1.0000 </r>
       <r>   -27.8661     0.0000     1.0000 </r>
       <r>   -27.7451     0.0000     1.0000 </r>
       <r>   -27.6242     0.0000     1.0000 </r>
       <r>   -27.5033     0.0000     1.0000 </r>
       <r>   -27.3823     0.0000     1.0000 </r>
       <r>   -27.2614     0.0000     1.0000 </r>
       <r>   -27.1404     0.0000     1.0000 </r>
       <r>   -27.0195     0.0000     1.0000 </r>
       <r>   -26.8986     0.0000     1.0000 </r>
       <r>   -26.7776     0.0000     1.0000 </r>
       <r>   -26.6567     0.0000     1.0000 </r>
       <r>   -26.5358     0.0000     1.0000 </r>
       <r>   -26.4148     0.0000     1.0000 </r>
       <r>   -26.2939     0.0000     1.0000 </r>
       <r>   -26.1729     0.0000     1.0000 </r>
       <r>   -26.0520     0.0000     1.0000 </r>
       <r>   -25.9311     0.0000     1.0000 </r>
       <r>   -25.8101     0.0000     1.0000 </r>
       <r>   -25.6892     0.0000     1.0000 </r>
       <r>   -25.5683     0.0000     1.0000 </r>
       <r>   -25.4473     0.0000     1.0000 </r>
       <r>   -25.3264     0.0000     1.0000 </r>
       <r>   -25.2054     0.0000     1.0000 </r>
       <r>   -25.0845     0.0000     1.0000 </r>
       <r>   -24.9636     0.0000     1.0000 </r>
       <r>   -24.8426     0.0000     1.0000 </r>
       <r>   -24.7217     0.0000     1.0000 </r>
       <r>   -24.6008     0.0000     1.0000 </r>
       <r>   -24.4798     0.0000     1.0000 </r>
       <r>   -24.3589     0.0000     1.0000 </r>
       <r>   -24.2379     0.0000     1.0000 </r>
       <r>   -24.1170     0.0000     1.0000 </r>
       <r>   -23.9961     0.0000     1.0000 </r>
       <r>   -23.8751     0.0000     1.0000 </r>
       <r>   -23.7542     0.0000     1.0000 </r>
       <r>   -23.6333     0.0000     1.0000 </r>
       <r>   -23.5123     0.0000     1.0000 </r>
       <r>   -23.3914     0.0000     1.0000 </r>
       <r>   -23.2704     0.0000     1.0000 </r>
       <r>   -23.1495     0.0000     1.0000 </r>
       <r>   -23.0286     0.0000     1.0000 </r>
       <r>   -22.9076     0.0000     1.0000 </r>
       <r>   -22.7867     0.0000     1.0000 </r>
       <r>   -22.6658     0.0000     1.0000 </r>
       <r>   -22.5448     0.0000     1.0000 </r>
       <r>   -22.4239     0.0000     1.0000 </r>
       <r>   -22.3030     0.0000     1.0000 </r>
       <r>   -22.1820     0.0000     1.0000 </r>
       <r>   -22.0611     0.0000     1.0000 </r>
       <r>   -21.9401     0.0000     1.0000 </r>
       <r>   -21.8192     0.0000     1.0000 </r>
       <r>   -21.6983     0.0000     1.0000 </r>
       <r>   -21.5773     0.0000     1.0000 </r>
       <r>   -21.4564     0.0000     1.0000 </r>
       <r>   -21.3355     0.0000     1.0000 </r>
       <r>   -21.2145     0.0000     1.0000 </r>
       <r>   -21.0936     0.0000     1.0000 </r>
       <r>   -20.9726     0.0000     1.0000 </r>
       <r>   -20.8517     0.0000     1.0000 </r>
       <r>   -20.7308     0.0000     1.0000 </r>
       <r>   -20.6098     0.0000     1.0000 </r>
       <r>   -20.4889     0.0000     1.0000 </r>
       <r>   -20.3680     0.0000     1.0000 </r>
       <r>   -20.2470     0.0000     1.0000 </r>
       <r>   -20.1261     0.0000     1.0000 </r>
       <r>   -20.0051     0.0000     1.0000 </r>
       <r>   -19.8842     0.0000     1.0000 </r>
       <r>   -19.7633     0.0000     1.0000 </r>
       <r>   -19.6423     0.0000     1.0000 </r>
       <r>   -19.5214     0.0000     1.0000 </r>
       <r>   -19.4005     0.0000     1.0000 </r>
       <r>   -19.2795     0.0000     1.0000 </r>
       <r>   -19.1586     0.0000     1.0000 </r>
       <r>   -19.0376     0.0058     1.0007 </r>
       <r>   -18.9167     4.8623     1.5887 </r>
       <r>   -18.7958     3.3996     1.9999 </r>
       <r>   -18.6748     0.0011     2.0000 </r>
       <r>   -18.5539     0.0000     2.0000 </r>
       <r>   -18.4330     0.0000     2.0000 </r>
       <r>   -18.3120     0.0000     2.0000 </r>
       <r>   -18.1911     0.0000     2.0000 </r>
       <r>   -18.0701     0.0000     2.0000 </r>
       <r>   -17.9492     0.0000     2.0000 </r>
       <r>   -17.8283     0.0000     2.0000 </r>
       <r>   -17.7073     0.0000     2.0000 </r>
       <r>   -17.5864     0.0000     2.0000 </r>
       <r>   -17.4655     0.0000     2.0000 </r>
       <r>   -17.3445     0.0000     2.0000 </r>
       <r>   -17.2236     0.0000     2.0000 </r>
       <r>   -17.1027     0.0000     2.0000 </r>
       <r>   -16.9817     0.0000     2.0000 </r>
       <r>   -16.8608     0.0000     2.0000 </r>
       <r>   -16.7398     0.0000     2.0000 </r>
       <r>   -16.6189     0.0000     2.0000 </r>
       <r>   -16.4980     0.0000     2.0000 </r>
       <r>   -16.3770     0.0000     2.0000 </r>
       <r>   -16.2561     0.0000     2.0000 </r>
       <r>   -16.1352     0.0000     2.0000 </r>
       <r>   -16.0142     0.0000     2.0000 </r>
       <r>   -15.8933     0.0000     2.0000 </r>
       <r>   -15.7723     0.0000     2.0000 </r>
       <r>   -15.6514     0.0000     2.0000 </r>
       <r>   -15.5305     0.0000     2.0000 </r>
       <r>   -15.4095     0.0000     2.0000 </r>
       <r>   -15.2886     0.0000     2.0000 </r>
       <r>   -15.1677     0.0000     2.0000 </r>
       <r>   -15.0467     0.0000     2.0000 </r>
       <r>   -14.9258     0.0000     2.0000 </r>
       <r>   -14.8048     0.0000     2.0000 </r>
       <r>   -14.6839     0.0000     2.0000 </r>
       <r>   -14.5630     0.0000     2.0000 </r>
       <r>   -14.4420     0.0000     2.0000 </r>
       <r>   -14.3211     0.0000     2.0000 </r>
       <r>   -14.2002     0.0000     2.0000 </r>
       <r>   -14.0792     0.0000     2.0000 </r>
       <r>   -13.9583     0.0000     2.0000 </r>
       <r>   -13.8373     0.0000     2.0000 </r>
       <r>   -13.7164     0.0000     2.0000 </r>
       <r>   -13.5955     0.0000     2.0000 </r>
       <r>   -13.4745     0.0000     2.0000 </r>
       <r>   -13.3536     0.0000     2.0000 </r>
       <r>   -13.2327     0.0000     2.0000 </r>
       <r>   -13.1117     0.0000     2.0000 </r>
       <r>   -12.9908     0.0000     2.0000 </r>
       <r>   -12.8698     0.0000     2.0000 </r>
       <r>   -12.7489     0.0000     2.0000 </r>
       <r>   -12.6280     0.0686     2.0083 </r>
       <r>   -12.5070     6.9375     2.8473 </r>
       <r>   -12.3861     1.2627     3.0000 </r>
       <r>   -12.2652     0.0000     3.0000 </r>
       <r>   -12.1442     0.0000     3.0000 </r>
       <r>   -12.0233     0.0000     3.0000 </r>
       <r>   -11.9024     0.0000     3.0000 </r>
       <r>   -11.7814     0.0000     3.0000 </r>
       <r>   -11.6605     0.0000     3.0000 </r>
       <r>   -11.5395     0.1343     3.0162 </r>
       <r>   -11.4186    13.8473     4.6909 </r>
       <r>   -11.2977     2.5558     5.0000 </r>
       <r>   -11.1767     0.0001     5.0000 </r>
       <r>   -11.0558     0.0000     5.0000 </r>
       <r>   -10.9349     0.0000     5.0000 </r>
       <r>   -10.8139     0.0000     5.0000 </r>
       <r>   -10.6930     0.0000     5.0000 </r>
       <r>   -10.5720     0.0000     5.0000 </r>
       <r>   -10.4511     0.0000     5.0000 </r>
       <r>   -10.3302     0.0000     5.0000 </r>
       <r>   -10.2092     0.0000     5.0000 </r>
       <r>   -10.0883     0.0000     5.0000 </r>
       <r>    -9.9674     0.0000     5.0000 </r>
       <r>    -9.8464     0.0000     5.0000 </r>
       <r>    -9.7255     0.0000     5.0000 </r>
       <r>    -9.6045     0.0000     5.0000 </r>
       <r>    -9.4836     0.0000     5.0000 </r>
       <r>    -9.3627     0.0000     5.0000 </r>
       <r>    -9.2417     0.0000     5.0000 </r>
       <r>    -9.1208     0.0000     5.0000 </r>
       <r>    -8.9999     0.0000     5.0000 </r>
       <r>    -8.8789     0.0000     5.0000 </r>
       <r>    -8.7580     0.0000     5.0000 </r>
       <r>    -8.6370     0.0000     5.0000 </r>
       <r>    -8.5161     0.0000     5.0000 </r>
       <r>    -8.3952     0.0000     5.0000 </r>
       <r>    -8.2742     0.0000     5.0000 </r>
       <r>    -8.1533     0.0000     5.0000 </r>
       <r>    -8.0324     0.0000     5.0000 </r>
       <r>    -7.9114     0.0000     5.0000 </r>
       <r>    -7.7905     0.0000     5.0000 </r>
       <r>    -7.6695     0.0000     5.0000 </r>
       <r>    -7.5486     0.0000     5.0000 </r>
       <r>    -7.4277     0.0000     5.0000 </r>
       <r>    -7.3067     0.0000     5.0000 </r>
       <r>    -7.1858     0.0000     5.0000 </r>
       <r>    -7.0649     0.0000     5.0000 </r>
       <r>    -6.9439     0.0000     5.0000 </r>
       <r>    -6.8230     0.0000     5.0000 </r>
       <r>    -6.7021     0.0000     5.0000 </r>
       <r>    -6.5811     0.0000     5.0000 </r>
       <r>    -6.4602     0.0000     5.0000 </r>
       <r>    -6.3392     0.0000     5.0000 </r>
       <r>    -6.2183     0.0000     5.0000 </r>
       <r>    -6.0974     0.0000     5.0000 </r>
       <r>    -5.9764     0.0000     5.0000 </r>
       <r>    -5.8555     0.0000     5.0000 </r>
       <r>    -5.7346     0.0000     5.0000 </r>
       <r>    -5.6136     0.0000     5.0000 </r>
       <r>    -5.4927     0.0000     5.0000 </r>
       <r>    -5.3717     0.0000     5.0000 </r>
       <r>    -5.2508     0.0000     5.0000 </r>
       <r>    -5.1299     0.0000     5.0000 </r>
       <r>    -5.0089     0.0000     5.0000 </r>
       <r>    -4.8880     0.0004     5.0000 </r>
       <r>    -4.7671     4.2173     5.5101 </r>
       <r>    -4.6461    12.2724     6.9943 </r>
       <r>    -4.5252     0.0475     7.0000 </r>
       <r>    -4.4042     0.0000     7.0000 </r>
       <r>    -4.2833     0.0000     7.0000 </r>
       <r>    -4.1624     0.0000     7.0000 </r>
       <r>    -4.0414     0.0000     7.0000 </r>
       <r>    -3.9205     0.0000     7.0000 </r>
       <r>    -3.7996     0.0000     7.0000 </r>
       <r>    -3.6786     0.0000     7.0000 </r>
       <r>    -3.5577     0.0000     7.0000 </r>
       <r>    -3.4367     0.0000     7.0000 </r>
       <r>    -3.3158     0.0000     7.0000 </r>
       <r>    -3.1949     0.0000     7.0000 </r>
       <r>    -3.0739     0.0000     7.0000 </r>
       <r>    -2.9530     0.0000     7.0000 </r>
       <r>    -2.8321     0.0000     7.0000 </r>
       <r>    -2.7111     0.0000     7.0000 </r>
       <r>    -2.5902     0.0000     7.0000 </r>
       <r>    -2.4692     0.0000     7.0000 </r>
       <r>    -2.3483     0.0000     7.0000 </r>
       <r>    -2.2274     0.0000     7.0000 </r>
       <r>    -2.1064     0.0000     7.0000 </r>
       <r>    -1.9855     0.0000     7.0000 </r>
       <r>    -1.8646     0.0000     7.0000 </r>
       <r>    -1.7436     0.0000     7.0000 </r>
       <r>    -1.6227     0.0000     7.0000 </r>
       <r>    -1.5018     0.0000     7.0000 </r>
       <r>    -1.3808     0.0000     7.0000 </r>
       <r>    -1.2599     0.0000     7.0000 </r>
       <r>    -1.1389     0.0000     7.0000 </r>
       <r>    -1.0180     0.0000     7.0000 </r>
       <r>    -0.8971     0.0000     7.0000 </r>
       <r>    -0.7761     0.0000     7.0000 </r>
       <r>    -0.6552     0.0000     7.0000 </r>
       <r>    -0.5343     0.0000     7.0000 </r>
       <r>    -0.4133     0.0000     7.0000 </r>
       <r>    -0.2924     0.0000     7.0000 </r>
       <r>    -0.1714     0.7104     7.0859 </r>
       <r>    -0.0505     7.6695     8.0134 </r>
       <r>     0.0704     9.4991     9.1622 </r>
       <r>     0.1914    40.1184    14.0140 </r>
       <r>     0.3123    67.4997    22.1773 </r>
       <r>     0.4332    46.3664    27.7847 </r>
       <r>     0.5542    34.6652    31.9770 </r>
       <r>     0.6751     0.1902    32.0000 </r>
       <r>     0.7961     0.0000    32.0000 </r>
       <r>     0.9170     0.0000    32.0000 </r>
       <r>     1.0379     0.0000    32.0000 </r>
       <r>     1.1589     0.0000    32.0000 </r>
       <r>     1.2798     0.0000    32.0000 </r>
       <r>     1.4007     0.0000    32.0000 </r>
       <r>     1.5217     0.0000    32.0000 </r>
       <r>     1.6426     0.0000    32.0000 </r>
       <r>     1.7636     0.0000    32.0000 </r>
       <r>     1.8845     0.0000    32.0000 </r>
       <r>     2.0054     0.0000    32.0000 </r>
       <r>     2.1264     0.0000    32.0000 </r>
      </set>
     </set>
    </array>
   </total>
   <partial>
    <array>
     <dimension dim="1">gridpoints</dimension>
     <dimension dim="2">spin</dimension>
     <dimension dim="3">ion</dimension>
     <field>energy</field>
     <field>    s</field>
     <field>   py</field>
[...]
        <r>     0.9170     0.0000     0.0000     0.0000     0.0000     0.0000     0.0000     0.0000     0.0000     0.0000 </r>
        <r>     1.0379     0.0000     0.0000     0.0000     0.0000     0.0000     0.0000     0.0000     0.0000     0.0000 </r>
        <r>     1.1589     0.0000     0.0000     0.0000     0.0000     0.0000     0.0000     0.0000     0.0000     0.0000 </r>
        <r>     1.2798     0.0000     0.0000     0.0000     0.0000     0.0000     0.0000     0.0000     0.0000     0.0000 </r>
        <r>     1.4007     0.0000     0.0000     0.0000     0.0000     0.0000     0.0000     0.0000     0.0000     0.0000 </r>
        <r>     1.5217     0.0000     0.0000     0.0000     0.0000     0.0000     0.0000     0.0000     0.0000     0.0000 </r>
        <r>     1.6426     0.0000     0.0000     0.0000     0.0000     0.0000     0.0000     0.0000     0.0000     0.0000 </r>
        <r>     1.7636     0.0000     0.0000     0.0000     0.0000     0.0000     0.0000     0.0000     0.0000     0.0000 </r>
        <r>     1.8845     0.0000     0.0000     0.0000     0.0000     0.0000     0.0000     0.0000     0.0000     0.0000 </r>
        <r>     2.0054     0.0000     0.0000     0.0000     0.0000     0.0000     0.0000     0.0000     0.0000     0.0000 </r>
        <r>     2.1264     0.0000     0.0000     0.0000     0.0000     0.0000     0.0000     0.0000     0.0000     0.0000 </r>
       </set>
      </set>
     </set>
    </array>
   </partial>
  </dos>
  <projected>
   <eigenvalues>
    <array>
     <dimension dim="1">band</dimension>
     <dimension dim="2">kpoint</dimension>
     <dimension dim="3">spin</dimension>
     <field>eigene</field>
     <field>occ</field>
     <set>
      <set comment="spin 1">
       <set comment="kpoint 1">
        <r>  -32.5057    1.0000 </r>
        <r>  -20.7218    1.0000 </r>
        <r>  -13.4364    1.0000 </r>
        <r>  -13.3189    1.0000 </r>
        <r>  -13.3189    1.0000 </r>
        <r>   -7.0477    1.0000 </r>
        <r>   -7.0477    1.0000 </r>
        <r>   -0.2111    0.0000 </r>
        <r>   -0.0017    0.0000 </r>
        <r>    0.1239    0.0000 </r>
        <r>    0.1248    0.0000 </r>
        <r>    0.1249    0.0000 </r>
        <r>    0.1287    0.0000 </r>
        <r>    0.1473    0.0000 </r>
        <r>    0.2057    0.0000 </r>
        <r>    0.2662    0.0000 </r>
        <r>    0.2668    0.0000 </r>
        <r>    0.2668    0.0000 </r>
        <r>    0.2972    0.0000 </r>
        <r>    0.2973    0.0000 </r>
        <r>    0.2991    0.0000 </r>
        <r>    0.3019    0.0000 </r>
        <r>    0.3019    0.0000 </r>
        <r>    0.3058    0.0000 </r>
        <r>    0.3098    0.0000 </r>
        <r>    0.3169    0.0000 </r>
        <r>    0.4202    0.0000 </r>
        <r>    0.4334    0.0000 </r>
        <r>    0.4365    0.0000 </r>
        <r>    0.4365    0.0000 </r>
        <r>    0.4662    0.0000 </r>
        <r>    0.4772    0.0000 </r>
       </set>
      </set>
      <set comment="spin 2">
       <set comment="kpoint 1">
        <r>  -31.2891    1.0000 </r>
        <r>  -18.9246    1.0000 </r>
        <r>  -12.5433    1.0000 </r>
        <r>  -11.4546    1.0000 </r>
        <r>  -11.4546    1.0000 </r>
        <r>   -4.7438    0.0000 </r>
        <r>   -4.7438    0.0000 </r>
        <r>   -0.1231    0.0000 </r>
        <r>    0.0143    0.0000 </r>
        <r>    0.1261    0.0000 </r>
        <r>    0.1262    0.0000 </r>
        <r>    0.1300    0.0000 </r>
        <r>    0.1310    0.0000 </r>
        <r>    0.1482    0.0000 </r>
        <r>    0.2157    0.0000 </r>
        <r>    0.2734    0.0000 </r>
        <r>    0.2734    0.0000 </r>
        <r>    0.2920    0.0000 </r>
        <r>    0.2968    0.0000 </r>
        <r>    0.2970    0.0000 </r>
        <r>    0.3015    0.0000 </r>
        <r>    0.3018    0.0000 </r>
        <r>    0.3018    0.0000 </r>
        <r>    0.3048    0.0000 </r>
        <r>    0.3097    0.0000 </r>
        <r>    0.3185    0.0000 </r>
        <r>    0.4319    0.0000 </r>
        <r>    0.4438    0.0000 </r>
        <r>    0.4438    0.0000 </r>
        <r>    0.4654    0.0000 </r>
        <r>    0.4675    0.0000 </r>
        <r>    0.4687    0.0000 </r>
       </set>
      </set>
     </set>
    </array>
   </eigenvalues>
   <array>
    <dimension dim="1">ion</dimension>
    <dimension dim="2">band</dimension>
    <dimension dim="3">kpoint</dimension>
    <dimension dim="4">spin</dimension>
    <field>    s</field>
    <field>   py</field>
    <field>   pz</field>
    <field>   px</field>
    <field>  dxy</field>
    <field>  dyz</field>
    <field>  dz2</field>
    <field>  dxz</field>
    <field>x2-y2</field>
    <set>
     <set comment="spin1">
      <set comment="kpoint 1">
       <set comment="band 1">
        <r>  0.3989  0.0000  0.0940  0.0000  0.0000  0.0000  0.0000  0.0000  0.0000 </r>
        <r>  0.3989  0.0000  0.0940  0.0000  0.0000  0.0000  0.0000  0.0000  0.0000 </r>
       </set>
       <set comment="band 2">
        <r>  0.3715  0.0000  0.0403  0.0000  0.0000  0.0000  0.0000  0.0000  0.0000 </r>
        <r>  0.3714  0.0000  0.0403  0.0000  0.0000  0.0000  0.0000  0.0000  0.0000 </r>
       </set>
       <set comment="band 3">
        <r>  0.0404  0.0000  0.3817  0.0000  0.0000  0.0000  0.0000  0.0000  0.0000 </r>
        <r>  0.0404  0.0000  0.3817  0.0000  0.0000  0.0000  0.0000  0.0000  0.0000 </r>
       </set>
       <set comment="band 4">
        <r>  0.0000  0.3723  0.0000  0.0000  0.0000  0.0000  0.0000  0.0000  0.0000 </r>
        <r>  0.0000  0.3723  0.0000  0.0000  0.0000  0.0000  0.0000  0.0000  0.0000 </r>
       </set>
       <set comment="band 5">
        <r>  0.0000  0.0000  0.0000  0.3723  0.0000  0.0000  0.0000  0.0000  0.0000 </r>
        <r>  0.0000  0.0000  0.0000  0.3723  0.0000  0.0000  0.0000  0.0000  0.0000 </r>
       </set>
       <set comment="band 6">
        <r>  0.0000  0.3880  0.0000  0.0000  0.0000  0.0000  0.0000  0.0000  0.0000 </r>
        <r>  0.0000  0.3880  0.0000  0.0000  0.0000  0.0000  0.0000  0.0000  0.0000 </r>
       </set>
       <set comment="band 7">
        <r>  0.0000  0.0000  0.0000  0.3880  0.0000  0.0000  0.0000  0.0000  0.0000 </r>
        <r>  0.0000  0.0000  0.0000  0.3880  0.0000  0.0000  0.0000  0.0000  0.0000 </r>
       </set>
       <set comment="band 8">
        <r>  0.0047  0.0000  0.0026  0.0000  0.0000  0.0000  0.0000  0.0000  0.0000 </r>
        <r>  0.0047  0.0000  0.0026  0.0000  0.0000  0.0000  0.0000  0.0000  0.0000 </r>
       </set>
       <set comment="band 9">
        <r>  0.0005  0.0000  0.0002  0.0000  0.0000  0.0000  0.0000  0.0000  0.0000 </r>
        <r>  0.0005  0.0000  0.0002  0.0000  0.0000  0.0000  0.0000  0.0000  0.0000 </r>
       </set>
       <set comment="band 10">
        <r>  0.0007  0.0000  0.0006  0.0000  0.0000  0.0000  0.0000  0.0000  0.0000 </r>
        <r>  0.0007  0.0000  0.0006  0.0000  0.0000  0.0000  0.0000  0.0000  0.0000 </r>
       </set>
       <set comment="band 11">
        <r>  0.0000  0.0000  0.0000  0.0001  0.0000  0.0000  0.0000  0.0000  0.0000 </r>
        <r>  0.0000  0.0000  0.0000  0.0001  0.0000  0.0000  0.0000  0.0000  0.0000 </r>
       </set>
       <set comment="band 12">
        <r>  0.0000  0.0001  0.0000  0.0000  0.0000  0.0000  0.0000  0.0000  0.0000 </r>
        <r>  0.0000  0.0001  0.0000  0.0000  0.0000  0.0000  0.0000  0.0000  0.0000 </r>
       </set>
       <set comment="band 13">
        <r>  0.0000  0.0000  0.0000  0.0000  0.0000  0.0000  0.0000  0.0000  0.0000 </r>
        <r>  0.0000  0.0000  0.0000  0.0000  0.0000  0.0000  0.0000  0.0000  0.0000 </r>
       </set>
       <set comment="band 14">
        <r>  0.0000  0.0000  0.0000  0.0000  0.0000  0.0000  0.0000  0.0000  0.0000 </r>
        <r>  0.0000  0.0000  0.0000  0.0000  0.0000  0.0000  0.0000  0.0000  0.0000 </r>
       </set>
       <set comment="band 15">
        <r>  0.0004  0.0000  0.0002  0.0000  0.0000  0.0000  0.0000  0.0000  0.0000 </r>
        <r>  0.0004  0.0000  0.0002  0.0000  0.0000  0.0000  0.0000  0.0000  0.0000 </r>
       </set>
       <set comment="band 16">
        <r>  0.0026  0.0000  0.0026  0.0000  0.0000  0.0000  0.0000  0.0000  0.0000 </r>
        <r>  0.0026  0.0000  0.0026  0.0000  0.0000  0.0000  0.0000  0.0000  0.0000 </r>
       </set>
       <set comment="band 17">
        <r>  0.0000  0.0000  0.0000  0.0004  0.0000  0.0000  0.0000  0.0000  0.0000 </r>
        <r>  0.0000  0.0000  0.0000  0.0004  0.0000  0.0000  0.0000  0.0000  0.0000 </r>
       </set>
       <set comment="band 18">
        <r>  0.0000  0.0004  0.0000  0.0000  0.0000  0.0000  0.0000  0.0000  0.0000 </r>
        <r>  0.0000  0.0004  0.0000  0.0000  0.0000  0.0000  0.0000  0.0000  0.0000 </r>
       </set>
       <set comment="band 19">
        <r>  0.0000  0.0000  0.0000  0.0000  0.0000  0.0000  0.0000  0.0000  0.0000 </r>
        <r>  0.0000  0.0000  0.0000  0.0000  0.0000  0.0000  0.0000  0.0000  0.0000 </r>
       </set>
       <set comment="band 20">
        <r>  0.0000  0.0000  0.0000  0.0000  0.0000  0.0000  0.0000  0.0000  0.0000 </r>
        <r>  0.0000  0.0000  0.0000  0.0000  0.0000  0.0000  0.0000  0.0000  0.0000 </r>
       </set>
       <set comment="band 21">
        <r>  0.0000  0.0000  0.0000  0.0000  0.0000  0.0000  0.0000  0.0000  0.0000 </r>
        <r>  0.0000  0.0000  0.0000  0.0000  0.0000  0.0000  0.0000  0.0000  0.0000 </r>
       </set>
       <set comment="band 22">
        <r>  0.0000  0.0000  0.0000  0.0000  0.0000  0.0000  0.0000  0.0000  0.0000 </r>
        <r>  0.0000  0.0000  0.0000  0.0000  0.0000  0.0000  0.0000  0.0000  0.0000 </r>
       </set>
       <set comment="band 23">
        <r>  0.0000  0.0000  0.0000  0.0000  0.0000  0.0000  0.0000  0.0000  0.0000 </r>
        <r>  0.0000  0.0000  0.0000  0.0000  0.0000  0.0000  0.0000  0.0000  0.0000 </r>
       </set>
       <set comment="band 24">
        <r>  0.0000  0.0000  0.0000  0.0000  0.0000  0.0000  0.0000  0.0000  0.0000 </r>
        <r>  0.0000  0.0000  0.0000  0.0000  0.0000  0.0000  0.0000  0.0000  0.0000 </r>
       </set>
       <set comment="band 25">
        <r>  0.0000  0.0000  0.0000  0.0000  0.0000  0.0000  0.0000  0.0000  0.0000 </r>
        <r>  0.0000  0.0000  0.0000  0.0000  0.0000  0.0000  0.0000  0.0000  0.0000 </r>
       </set>
       <set comment="band 26">
        <r>  0.0000  0.0000  0.0000  0.0000  0.0000  0.0000  0.0000  0.0000  0.0000 </r>
        <r>  0.0000  0.0000  0.0000  0.0000  0.0000  0.0000  0.0000  0.0000  0.0000 </r>
       </set>
       <set comment="band 27">
        <r>  0.0005  0.0000  0.0002  0.0000  0.0000  0.0000  0.0000  0.0000  0.0000 </r>
        <r>  0.0005  0.0000  0.0002  0.0000  0.0000  0.0000  0.0000  0.0000  0.0000 </r>
       </set>
       <set comment="band 28">
        <r>  0.0036  0.0000  0.0039  0.0000  0.0000  0.0000  0.0000  0.0000  0.0000 </r>
        <r>  0.0036  0.0000  0.0039  0.0000  0.0000  0.0000  0.0000  0.0000  0.0000 </r>
       </set>
       <set comment="band 29">
        <r>  0.0000  0.0003  0.0000  0.0000  0.0000  0.0000  0.0000  0.0000  0.0000 </r>
        <r>  0.0000  0.0003  0.0000  0.0000  0.0000  0.0000  0.0000  0.0000  0.0000 </r>
       </set>
       <set comment="band 30">
        <r>  0.0000  0.0000  0.0000  0.0003  0.0000  0.0000  0.0000  0.0000  0.0000 </r>
        <r>  0.0000  0.0000  0.0000  0.0003  0.0000  0.0000  0.0000  0.0000  0.0000 </r>
       </set>
       <set comment="band 31">
        <r>  0.0000  0.0000  0.0000  0.0000  0.0000  0.0000  0.0000  0.0000  0.0000 </r>
        <r>  0.0000  0.0000  0.0000  0.0000  0.0000  0.0000  0.0000  0.0000  0.0000 </r>
       </set>
       <set comment="band 32">
        <r>  0.0000  0.0000  0.0000  0.0000  0.0000  0.0000  0.0000  0.0000  0.0000 </r>
        <r>  0.0000  0.0000  0.0000  0.0000  0.0000  0.0000  0.0000  0.0000  0.0000 </r>
       </set>
      </set>
     </set>
     <set comment="spin2">
      <set comment="kpoint 1">
       <set comment="band 1">
        <r>  0.3915  0.0000  0.1046  0.0000  0.0000  0.0000  0.0000  0.0000  0.0000 </r>
        <r>  0.3915  0.0000  0.1046  0.0000  0.0000  0.0000  0.0000  0.0000  0.0000 </r>
       </set>
       <set comment="band 2">
        <r>  0.3635  0.0000  0.0447  0.0000  0.0000  0.0000  0.0000  0.0000  0.0000 </r>
        <r>  0.3635  0.0000  0.0447  0.0000  0.0000  0.0000  0.0000  0.0000  0.0000 </r>
       </set>
       <set comment="band 3">
        <r>  0.0456  0.0000  0.3697  0.0000  0.0000  0.0000  0.0000  0.0000  0.0000 </r>
        <r>  0.0456  0.0000  0.3697  0.0000  0.0000  0.0000  0.0000  0.0000  0.0000 </r>
       </set>
       <set comment="band 4">
        <r>  0.0000  0.3582  0.0000  0.0000  0.0000  0.0000  0.0000  0.0000  0.0000 </r>
        <r>  0.0000  0.3582  0.0000  0.0000  0.0000  0.0000  0.0000  0.0000  0.0000 </r>
       </set>
       <set comment="band 5">
        <r>  0.0000  0.0000  0.0000  0.3582  0.0000  0.0000  0.0000  0.0000  0.0000 </r>
        <r>  0.0000  0.0000  0.0000  0.3582  0.0000  0.0000  0.0000  0.0000  0.0000 </r>
       </set>
       <set comment="band 6">
        <r>  0.0000  0.3725  0.0000  0.0000  0.0000  0.0000  0.0000  0.0000  0.0000 </r>
        <r>  0.0000  0.3725  0.0000  0.0000  0.0000  0.0000  0.0000  0.0000  0.0000 </r>
       </set>
       <set comment="band 7">
        <r>  0.0000  0.0000  0.0000  0.3725  0.0000  0.0000  0.0000  0.0000  0.0000 </r>
        <r>  0.0000  0.0000  0.0000  0.3725  0.0000  0.0000  0.0000  0.0000  0.0000 </r>
       </set>
       <set comment="band 8">
        <r>  0.0032  0.0000  0.0018  0.0000  0.0000  0.0000  0.0000  0.0000  0.0000 </r>
        <r>  0.0032  0.0000  0.0018  0.0000  0.0000  0.0000  0.0000  0.0000  0.0000 </r>
       </set>
       <set comment="band 9">
        <r>  0.0009  0.0000  0.0005  0.0000  0.0000  0.0000  0.0000  0.0000  0.0000 </r>
        <r>  0.0009  0.0000  0.0005  0.0000  0.0000  0.0000  0.0000  0.0000  0.0000 </r>
       </set>
       <set comment="band 10">
        <r>  0.0000  0.0000  0.0000  0.0001  0.0000  0.0000  0.0000  0.0000  0.0000 </r>
        <r>  0.0000  0.0000  0.0000  0.0001  0.0000  0.0000  0.0000  0.0000  0.0000 </r>
       </set>
       <set comment="band 11">
        <r>  0.0000  0.0001  0.0000  0.0000  0.0000  0.0000  0.0000  0.0000  0.0000 </r>
        <r>  0.0000  0.0001  0.0000  0.0000  0.0000  0.0000  0.0000  0.0000  0.0000 </r>
       </set>
       <set comment="band 12">
        <r>  0.0000  0.0000  0.0000  0.0000  0.0000  0.0000  0.0000  0.0000  0.0000 </r>
        <r>  0.0000  0.0000  0.0000  0.0000  0.0000  0.0000  0.0000  0.0000  0.0000 </r>
       </set>
       <set comment="band 13">
        <r>  0.0002  0.0000  0.0001  0.0000  0.0000  0.0000  0.0000  0.0000  0.0000 </r>
        <r>  0.0002  0.0000  0.0001  0.0000  0.0000  0.0000  0.0000  0.0000  0.0000 </r>
       </set>
       <set comment="band 14">
        <r>  0.0000  0.0000  0.0000  0.0000  0.0000  0.0000  0.0000  0.0000  0.0000 </r>
        <r>  0.0000  0.0000  0.0000  0.0000  0.0000  0.0000  0.0000  0.0000  0.0000 </r>
       </set>
       <set comment="band 15">
        <r>  0.0006  0.0000  0.0003  0.0000  0.0000  0.0000  0.0000  0.0000  0.0000 </r>
        <r>  0.0006  0.0000  0.0003  0.0000  0.0000  0.0000  0.0000  0.0000  0.0000 </r>
       </set>
       <set comment="band 16">
        <r>  0.0000  0.0000  0.0000  0.0004  0.0000  0.0000  0.0000  0.0000  0.0000 </r>
        <r>  0.0000  0.0000  0.0000  0.0004  0.0000  0.0000  0.0000  0.0000  0.0000 </r>
       </set>
       <set comment="band 17">
        <r>  0.0000  0.0004  0.0000  0.0000  0.0000  0.0000  0.0000  0.0000  0.0000 </r>
        <r>  0.0000  0.0004  0.0000  0.0000  0.0000  0.0000  0.0000  0.0000  0.0000 </r>
       </set>
       <set comment="band 18">
        <r>  0.0007  0.0000  0.0004  0.0000  0.0000  0.0000  0.0000  0.0000  0.0000 </r>
        <r>  0.0007  0.0000  0.0004  0.0000  0.0000  0.0000  0.0000  0.0000  0.0000 </r>
       </set>
       <set comment="band 19">
        <r>  0.0000  0.0000  0.0000  0.0000  0.0000  0.0000  0.0000  0.0000  0.0000 </r>
        <r>  0.0000  0.0000  0.0000  0.0000  0.0000  0.0000  0.0000  0.0000  0.0000 </r>
       </set>
       <set comment="band 20">
        <r>  0.0000  0.0000  0.0000  0.0000  0.0000  0.0000  0.0000  0.0000  0.0000 </r>
        <r>  0.0000  0.0000  0.0000  0.0000  0.0000  0.0000  0.0000  0.0000  0.0000 </r>
       </set>
       <set comment="band 21">
        <r>  0.0001  0.0000  0.0000  0.0000  0.0000  0.0000  0.0000  0.0000  0.0000 </r>
        <r>  0.0001  0.0000  0.0000  0.0000  0.0000  0.0000  0.0000  0.0000  0.0000 </r>
       </set>
       <set comment="band 22">
        <r>  0.0000  0.0000  0.0000  0.0000  0.0000  0.0000  0.0000  0.0000  0.0000 </r>
        <r>  0.0000  0.0000  0.0000  0.0000  0.0000  0.0000  0.0000  0.0000  0.0000 </r>
       </set>
       <set comment="band 23">
        <r>  0.0000  0.0000  0.0000  0.0000  0.0000  0.0000  0.0000  0.0000  0.0000 </r>
        <r>  0.0000  0.0000  0.0000  0.0000  0.0000  0.0000  0.0000  0.0000  0.0000 </r>
       </set>
       <set comment="band 24">
        <r>  0.0000  0.0000  0.0000  0.0000  0.0000  0.0000  0.0000  0.0000  0.0000 </r>
        <r>  0.0000  0.0000  0.0000  0.0000  0.0000  0.0000  0.0000  0.0000  0.0000 </r>
       </set>
       <set comment="band 25">
        <r>  0.0000  0.0000  0.0000  0.0000  0.0000  0.0000  0.0000  0.0000  0.0000 </r>
        <r>  0.0000  0.0000  0.0000  0.0000  0.0000  0.0000  0.0000  0.0000  0.0000 </r>
       </set>
       <set comment="band 26">
        <r>  0.0000  0.0000  0.0000  0.0000  0.0000  0.0000  0.0000  0.0000  0.0000 </r>
        <r>  0.0000  0.0000  0.0000  0.0000  0.0000  0.0000  0.0000  0.0000  0.0000 </r>
       </set>
       <set comment="band 27">
        <r>  0.0005  0.0000  0.0003  0.0000  0.0000  0.0000  0.0000  0.0000  0.0000 </r>
        <r>  0.0005  0.0000  0.0003  0.0000  0.0000  0.0000  0.0000  0.0000  0.0000 </r>
       </set>
       <set comment="band 28">
        <r>  0.0000  0.0003  0.0000  0.0000  0.0000  0.0000  0.0000  0.0000  0.0000 </r>
        <r>  0.0000  0.0003  0.0000  0.0000  0.0000  0.0000  0.0000  0.0000  0.0000 </r>
       </set>
       <set comment="band 29">
        <r>  0.0000  0.0000  0.0000  0.0003  0.0000  0.0000  0.0000  0.0000  0.0000 </r>
        <r>  0.0000  0.0000  0.0000  0.0003  0.0000  0.0000  0.0000  0.0000  0.0000 </r>
       </set>
       <set comment="band 30">
        <r>  0.0000  0.0000  0.0000  0.0000  0.0000  0.0000  0.0000  0.0000  0.0000 </r>
        <r>  0.0000  0.0000  0.0000  0.0000  0.0000  0.0000  0.0000  0.0000  0.0000 </r>
       </set>
       <set comment="band 31">
        <r>  0.0000  0.0000  0.0000  0.0000  0.0000  0.0000  0.0000  0.0000  0.0000 </r>
        <r>  0.0000  0.0000  0.0000  0.0000  0.0000  0.0000  0.0000  0.0000  0.0000 </r>
       </set>
       <set comment="band 32">
        <r>  0.0011  0.0000  0.0006  0.0000  0.0000  0.0000  0.0000  0.0000  0.0000 </r>
        <r>  0.0011  0.0000  0.0006  0.0000  0.0000  0.0000  0.0000  0.0000  0.0000 </r>
       </set>
      </set>
     </set>
    </set>
   </array>
  </projected>
 </calculation>
 <structure name="finalpos" >
  <crystal>
   <varray name="basis" >
    <v>      30.00630047       0.00000000      -0.00000000 </v>
    <v>       0.00000000      29.99630893       0.00000000 </v>
    <v>       0.00000000       0.00000000      30.10637533 </v>
   </varray>
   <i name="volume">  27098.09388053 </i>
   <varray name="rec_basis" >
    <v>       0.03332633       0.00000000      -0.00000000 </v>
    <v>       0.00000000       0.03333744       0.00000000 </v>
    <v>       0.00000000      -0.00000000       0.03321556 </v>
   </varray>
  </crystal>
  <varray name="positions" >
   <v>       0.49983339       0.50000000       0.49981605 </v>
   <v>       0.49983339       0.50000000       0.54086418 </v>
  </varray>
 </structure>
</modeling>
