<?xml version="1.0" encoding="ISO-8859-1"?>
<modeling>
 <generator>
  <i name="program" type="string">vasp </i>
  <i name="version" type="string">6.4.3  </i>
  <i name="subversion" type="string">19Mar24 (build Oct 16 2024 18:29:25) complex                          parallel </i>
  <i name="platform" type="string">LinuxIFC </i>
  <i name="date" type="string">2025 08 12 </i>
  <i name="time" type="string">17:42:01 </i>
 </generator>
 <incar>
  <i type="string" name="PREC">Accurate</i>
  <i type="string" name="ALGO">Fast</i>
  <i type="int" name="ISPIN">     2</i>
  <i type="int" name="NELM">   100</i>
  <i type="int" name="IBRION">     2</i>
  <i name="EDIFF">      0.00005000</i>
  <i type="int" name="NSW">    99</i>
  <i type="int" name="ISIF">     3</i>
  <i name="ENCUT">    520.00000000</i>
  <v name="MAGMOM">      0.60000000</v>
  <i type="string" name="LREAL">Auto</i>
  <i type="int" name="ISMEAR">     1</i>
  <i name="SIGMA">      0.20000000</i>
  <i type="logical" name="LWAVE"> F  </i>
  <i type="int" name="LORBIT">    11</i>
  <i type="logical" name="LASPH"> T  </i>
 </incar>
 <primitive_cell>
  <structure name="primitive_cell" >
   <crystal>
    <varray name="basis" >
     <v>       0.00000000       2.01946500       2.01946500 </v>
     <v>       2.01946500       0.00000000       2.01946500 </v>
     <v>       2.01946500       2.01946500       0.00000000 </v>
    </varray>
    <i name="volume">     16.47172138 </i>
    <varray name="rec_basis" >
     <v>      -0.24759033       0.24759033       0.24759033 </v>
     <v>       0.24759033      -0.24759033       0.24759033 </v>
     <v>       0.24759033       0.24759033      -0.24759033 </v>
    </varray>
   </crystal>
   <varray name="positions" >
    <v>       0.00000000       0.00000000       0.00000000 </v>
   </varray>
  </structure>
  <varray name="primitive_index" >
   <v type="int" >        1 </v>
  </varray>
 </primitive_cell>
 <kpoints>
  <generation param="Gamma">
   <v type="int" name="divisions">      14       14       14 </v>
   <v name="usershift">      0.00000000       0.00000000       0.00000000 </v>
   <v name="genvec1">      0.07142857       0.00000000       0.00000000 </v>
   <v name="genvec2">      0.00000000       0.07142857      -0.00000000 </v>
   <v name="genvec3">     -0.00000000      -0.00000000       0.07142857 </v>
   <v name="shift">      0.00000000       0.00000000       0.00000000 </v>
  </generation>
  <varray name="kpointlist" >
   <v>       0.00000000       0.00000000       0.00000000 </v>
   <v>       0.07142857       0.00000000       0.00000000 </v>
   <v>       0.14285714       0.00000000       0.00000000 </v>
   <v>       0.21428571       0.00000000       0.00000000 </v>
   <v>       0.28571429       0.00000000       0.00000000 </v>
   <v>       0.35714286       0.00000000       0.00000000 </v>
   <v>       0.42857143       0.00000000       0.00000000 </v>
   <v>       0.50000000       0.00000000       0.00000000 </v>
   <v>       0.07142857       0.07142857       0.00000000 </v>
   <v>       0.14285714       0.07142857       0.00000000 </v>
   <v>       0.21428571       0.07142857       0.00000000 </v>
   <v>       0.28571429       0.07142857       0.00000000 </v>
   <v>       0.35714286       0.07142857       0.00000000 </v>
   <v>       0.42857143       0.07142857       0.00000000 </v>
   <v>       0.50000000       0.07142857       0.00000000 </v>
   <v>      -0.42857143       0.07142857       0.00000000 </v>
   <v>      -0.35714286       0.07142857       0.00000000 </v>
   <v>      -0.28571429       0.07142857       0.00000000 </v>
   <v>      -0.21428571       0.07142857       0.00000000 </v>
   <v>      -0.14285714       0.07142857       0.00000000 </v>
   <v>      -0.07142857       0.07142857       0.00000000 </v>
   <v>       0.14285714       0.14285714       0.00000000 </v>
   <v>       0.21428571       0.14285714       0.00000000 </v>
   <v>       0.28571429       0.14285714       0.00000000 </v>
   <v>       0.35714286       0.14285714       0.00000000 </v>
   <v>       0.42857143       0.14285714       0.00000000 </v>
   <v>       0.50000000       0.14285714       0.00000000 </v>
   <v>      -0.42857143       0.14285714       0.00000000 </v>
   <v>      -0.35714286       0.14285714       0.00000000 </v>
   <v>      -0.28571429       0.14285714       0.00000000 </v>
   <v>      -0.21428571       0.14285714       0.00000000 </v>
   <v>      -0.14285714       0.14285714       0.00000000 </v>
   <v>       0.21428571       0.21428571       0.00000000 </v>
   <v>       0.28571429       0.21428571       0.00000000 </v>
   <v>       0.35714286       0.21428571       0.00000000 </v>
   <v>       0.42857143       0.21428571       0.00000000 </v>
   <v>       0.50000000       0.21428571       0.00000000 </v>
   <v>      -0.42857143       0.21428571       0.00000000 </v>
   <v>      -0.35714286       0.21428571       0.00000000 </v>
   <v>      -0.28571429       0.21428571       0.00000000 </v>
   <v>      -0.21428571       0.21428571       0.00000000 </v>
   <v>       0.28571429       0.28571429       0.00000000 </v>
   <v>       0.35714286       0.28571429       0.00000000 </v>
   <v>       0.42857143       0.28571429       0.00000000 </v>
   <v>       0.50000000       0.28571429       0.00000000 </v>
   <v>      -0.42857143       0.28571429       0.00000000 </v>
   <v>      -0.35714286       0.28571429       0.00000000 </v>
   <v>      -0.28571429       0.28571429       0.00000000 </v>
   <v>       0.35714286       0.35714286       0.00000000 </v>
   <v>       0.42857143       0.35714286       0.00000000 </v>
   <v>       0.50000000       0.35714286       0.00000000 </v>
   <v>      -0.42857143       0.35714286       0.00000000 </v>
   <v>      -0.35714286       0.35714286       0.00000000 </v>
   <v>       0.42857143       0.42857143       0.00000000 </v>
   <v>       0.50000000       0.42857143       0.00000000 </v>
   <v>      -0.42857143       0.42857143       0.00000000 </v>
   <v>       0.50000000       0.50000000       0.00000000 </v>
   <v>       0.21428571       0.14285714       0.07142857 </v>
   <v>       0.28571429       0.14285714       0.07142857 </v>
   <v>       0.35714286       0.14285714       0.07142857 </v>
   <v>       0.42857143       0.14285714       0.07142857 </v>
   <v>       0.50000000       0.14285714       0.07142857 </v>
   <v>      -0.42857143       0.14285714       0.07142857 </v>
   <v>       0.28571429       0.21428571       0.07142857 </v>
   <v>       0.35714286       0.21428571       0.07142857 </v>
   <v>       0.42857143       0.21428571       0.07142857 </v>
   <v>       0.50000000       0.21428571       0.07142857 </v>
   <v>      -0.42857143       0.21428571       0.07142857 </v>
   <v>      -0.35714286       0.21428571       0.07142857 </v>
   <v>      -0.28571429       0.21428571       0.07142857 </v>
   <v>      -0.21428571       0.21428571       0.07142857 </v>
   <v>      -0.14285714       0.21428571       0.07142857 </v>
   <v>       0.35714286       0.28571429       0.07142857 </v>
   <v>       0.42857143       0.28571429       0.07142857 </v>
   <v>       0.50000000       0.28571429       0.07142857 </v>
   <v>      -0.42857143       0.28571429       0.07142857 </v>
   <v>      -0.35714286       0.28571429       0.07142857 </v>
   <v>      -0.28571429       0.28571429       0.07142857 </v>
   <v>      -0.21428571       0.28571429       0.07142857 </v>
   <v>       0.42857143       0.35714286       0.07142857 </v>
   <v>       0.50000000       0.35714286       0.07142857 </v>
   <v>      -0.42857143       0.35714286       0.07142857 </v>
   <v>      -0.35714286       0.35714286       0.07142857 </v>
   <v>      -0.28571429       0.35714286       0.07142857 </v>
   <v>       0.50000000       0.42857143       0.07142857 </v>
   <v>      -0.42857143       0.42857143       0.07142857 </v>
   <v>      -0.35714286       0.42857143       0.07142857 </v>
   <v>      -0.42857143       0.50000000       0.07142857 </v>
   <v>       0.42857143       0.28571429       0.14285714 </v>
   <v>       0.50000000       0.28571429       0.14285714 </v>
   <v>      -0.42857143       0.28571429       0.14285714 </v>
   <v>      -0.35714286       0.28571429       0.14285714 </v>
   <v>       0.50000000       0.35714286       0.14285714 </v>
   <v>      -0.42857143       0.35714286       0.14285714 </v>
   <v>      -0.35714286       0.35714286       0.14285714 </v>
   <v>      -0.28571429       0.35714286       0.14285714 </v>
   <v>      -0.21428571       0.35714286       0.14285714 </v>
   <v>      -0.42857143       0.42857143       0.14285714 </v>
   <v>      -0.35714286       0.42857143       0.14285714 </v>
   <v>      -0.28571429       0.42857143       0.14285714 </v>
   <v>      -0.35714286       0.50000000       0.14285714 </v>
   <v>      -0.35714286       0.42857143       0.21428571 </v>
   <v>      -0.28571429       0.42857143       0.21428571 </v>
   <v>      -0.28571429       0.50000000       0.21428571 </v>
  </varray>
  <varray name="weights" >
   <v>       0.00036443 </v>
   <v>       0.00291545 </v>
   <v>       0.00291545 </v>
   <v>       0.00291545 </v>
   <v>       0.00291545 </v>
   <v>       0.00291545 </v>
   <v>       0.00291545 </v>
   <v>       0.00145773 </v>
   <v>       0.00218659 </v>
   <v>       0.00874636 </v>
   <v>       0.00874636 </v>
   <v>       0.00874636 </v>
   <v>       0.00874636 </v>
   <v>       0.00874636 </v>
   <v>       0.00874636 </v>
   <v>       0.00874636 </v>
   <v>       0.00874636 </v>
   <v>       0.00874636 </v>
   <v>       0.00874636 </v>
   <v>       0.00874636 </v>
   <v>       0.00437318 </v>
   <v>       0.00218659 </v>
   <v>       0.00874636 </v>
   <v>       0.00874636 </v>
   <v>       0.00874636 </v>
   <v>       0.00874636 </v>
   <v>       0.00874636 </v>
   <v>       0.00874636 </v>
   <v>       0.00874636 </v>
   <v>       0.00874636 </v>
   <v>       0.00874636 </v>
   <v>       0.00437318 </v>
   <v>       0.00218659 </v>
   <v>       0.00874636 </v>
   <v>       0.00874636 </v>
   <v>       0.00874636 </v>
   <v>       0.00874636 </v>
   <v>       0.00874636 </v>
   <v>       0.00874636 </v>
   <v>       0.00874636 </v>
   <v>       0.00437318 </v>
   <v>       0.00218659 </v>
   <v>       0.00874636 </v>
   <v>       0.00874636 </v>
   <v>       0.00874636 </v>
   <v>       0.00874636 </v>
   <v>       0.00874636 </v>
   <v>       0.00437318 </v>
   <v>       0.00218659 </v>
   <v>       0.00874636 </v>
   <v>       0.00874636 </v>
   <v>       0.00874636 </v>
   <v>       0.00437318 </v>
   <v>       0.00218659 </v>
   <v>       0.00874636 </v>
   <v>       0.00437318 </v>
   <v>       0.00109329 </v>
   <v>       0.00874636 </v>
   <v>       0.01749271 </v>
   <v>       0.01749271 </v>
   <v>       0.01749271 </v>
   <v>       0.01749271 </v>
   <v>       0.00874636 </v>
   <v>       0.00874636 </v>
   <v>       0.01749271 </v>
   <v>       0.01749271 </v>
   <v>       0.01749271 </v>
   <v>       0.01749271 </v>
   <v>       0.01749271 </v>
   <v>       0.01749271 </v>
   <v>       0.01749271 </v>
   <v>       0.00874636 </v>
   <v>       0.00874636 </v>
   <v>       0.01749271 </v>
   <v>       0.01749271 </v>
   <v>       0.01749271 </v>
   <v>       0.01749271 </v>
   <v>       0.01749271 </v>
   <v>       0.00874636 </v>
   <v>       0.00874636 </v>
   <v>       0.01749271 </v>
   <v>       0.01749271 </v>
   <v>       0.01749271 </v>
   <v>       0.00874636 </v>
   <v>       0.00874636 </v>
   <v>       0.01749271 </v>
   <v>       0.00874636 </v>
   <v>       0.00437318 </v>
   <v>       0.00874636 </v>
   <v>       0.01749271 </v>
   <v>       0.01749271 </v>
   <v>       0.00874636 </v>
   <v>       0.00874636 </v>
   <v>       0.01749271 </v>
   <v>       0.01749271 </v>
   <v>       0.01749271 </v>
   <v>       0.00874636 </v>
   <v>       0.00874636 </v>
   <v>       0.01749271 </v>
   <v>       0.00874636 </v>
   <v>       0.00437318 </v>
   <v>       0.00874636 </v>
   <v>       0.00874636 </v>
   <v>       0.00437318 </v>
  </varray>
 </kpoints>
 <parameters>
  <separator name="general" >
   <i type="string" name="SYSTEM">unknown system</i>
   <i type="logical" name="LCOMPAT"> F  </i>
  </separator>
  <separator name="electronic" >
   <i type="string" name="PREC">accura</i>
   <i name="ENMAX">    520.00000000</i>
   <i name="ENAUG">    291.05200000</i>
   <i name="EDIFF">      0.00005000</i>
   <i type="int" name="IALGO">    68</i>
   <i type="int" name="IWAVPR">    11</i>
   <i type="int" name="NBANDS">    32</i>
   <i type="int" name="NBANDSLOW">    -1</i>
   <i type="int" name="NBANDSHIGH">    -1</i>
   <i name="NELECT">      3.00000000</i>
   <i type="int" name="TURBO">     0</i>
   <i type="int" name="IRESTART">     0</i>
   <i type="int" name="NREBOOT">     0</i>
   <i type="int" name="NMIN">     0</i>
   <i name="EREF">      0.00000000</i>
   <separator name="electronic smearing" >
    <i type="int" name="ISMEAR">     1</i>
    <i name="SIGMA">      0.20000000</i>
    <i name="KSPACING">      0.50000000</i>
    <i type="logical" name="KGAMMA"> T  </i>
    <i type="logical" name="KBLOWUP"> T  </i>
   </separator>
   <separator name="electronic projectors" >
    <i type="logical" name="LREAL"> T  </i>
    <v name="ROPT">     -0.00025000</v>
    <i type="int" name="LMAXPAW">  -100</i>
    <i type="int" name="LMAXMIX">     2</i>
    <i type="logical" name="NLSPLINE"> F  </i>
   </separator>
   <separator name="electronic startup" >
    <i type="int" name="ISTART">     0</i>
    <i type="int" name="ICHARG">     2</i>
    <i type="int" name="INIWAV">     1</i>
   </separator>
   <separator name="electronic spin" >
    <i type="int" name="ISPIN">     2</i>
    <i type="logical" name="LNONCOLLINEAR"> F  </i>
    <v name="MAGMOM">      0.60000000</v>
    <i name="NUPDOWN">     -1.00000000</i>
    <i type="logical" name="LSORBIT"> F  </i>
    <v name="SAXIS">      0.00000000      0.00000000      1.00000000</v>
    <i type="logical" name="LSPIRAL"> F  </i>
    <v name="QSPIRAL">      0.00000000      0.00000000      0.00000000</v>
    <i type="logical" name="LZEROZ"> F  </i>
   </separator>
   <separator name="electronic exchange-correlation" >
    <i type="logical" name="LASPH"> T  </i>
   </separator>
   <separator name="electronic convergence" >
    <i type="int" name="NELM">   100</i>
    <i type="int" name="NELMDL">    -5</i>
    <i type="int" name="NELMIN">     2</i>
    <i name="ENINI">    520.00000000</i>
    <separator name="electronic convergence detail" >
     <i type="logical" name="LDIAG"> T  </i>
     <i type="logical" name="LSUBROT"> F  </i>
     <i name="WEIMIN">      0.00100000</i>
     <i name="EBREAK">      0.00000039</i>
     <i name="DEPER">      0.30000000</i>
     <i type="int" name="NRMM">     4</i>
     <i name="TIME">      0.40000000</i>
    </separator>
   </separator>
   <separator name="electronic mixer" >
    <i name="AMIX">      0.40000000</i>
    <i name="BMIX">      1.00000000</i>
    <i name="AMIN">      0.10000000</i>
    <i name="AMIX_MAG">      1.60000000</i>
    <i name="BMIX_MAG">      1.00000000</i>
    <separator name="electronic mixer details" >
     <i type="int" name="IMIX">     4</i>
     <i type="logical" name="MIXFIRST"> F  </i>
     <i type="int" name="MAXMIX">   -45</i>
     <i name="WC">    100.00000000</i>
     <i type="int" name="INIMIX">     1</i>
     <i type="int" name="MIXPRE">     1</i>
     <i type="int" name="MREMOVE">     5</i>
    </separator>
   </separator>
   <separator name="electronic dipolcorrection" >
    <i type="logical" name="LDIPOL"> F  </i>
    <i type="logical" name="LMONO"> F  </i>
    <i type="int" name="IDIPOL">     0</i>
    <i name="EPSILON">      1.00000000</i>
    <v name="DIPOL">   -100.00000000   -100.00000000   -100.00000000</v>
    <i name="EFIELD">      0.00000000</i>
    <i type="logical" name="LVACPOTAV"> F  </i>
   </separator>
  </separator>
  <separator name="grids" >
   <i type="int" name="NGX">    24</i>
   <i type="int" name="NGY">    24</i>
   <i type="int" name="NGZ">    24</i>
   <i type="int" name="NGXF">    48</i>
   <i type="int" name="NGYF">    48</i>
   <i type="int" name="NGZF">    48</i>
   <i type="logical" name="ADDGRID"> F  </i>
  </separator>
  <separator name="ionic" >
   <i type="int" name="NSW">    99</i>
   <i type="int" name="IBRION">     2</i>
   <i type="int" name="MDALGO">     0</i>
   <i type="int" name="ISIF">     3</i>
   <i name="PSTRESS">      0.00000000</i>
   <i name="EDIFFG">      0.00050000</i>
   <i type="int" name="NFREE">     1</i>
   <i name="POTIM">      0.50000000</i>
   <i name="SMASS">     -3.00000000</i>
   <i name="SCALEE">      1.00000000</i>
  </separator>
  <separator name="ionic md" >
   <i name="TEBEG">      0.00010000</i>
   <i name="TEEND">      0.00010000</i>
   <i type="int" name="NBLOCK">     1</i>
   <i type="int" name="KBLOCK">    99</i>
   <i type="int" name="NPACO">   256</i>
   <i name="APACO">     10.00000000</i>
  </separator>
  <separator name="symmetry" >
   <i type="int" name="ISYM">     2</i>
   <i name="SYMPREC">      0.00001000</i>
  </separator>
  <separator name="dos" >
   <i type="int" name="LORBIT">    11</i>
   <v name="RWIGS">     -1.00000000</v>
   <i type="int" name="NEDOS">   301</i>
   <i name="EMIN">     10.00000000</i>
   <i name="EMAX">    -10.00000000</i>
   <i name="EFERMI">      0.00000000</i>
  </separator>
  <separator name="writing" >
   <i type="int" name="NWRITE">     2</i>
   <i type="logical" name="LWAVE"> F  </i>
   <i type="logical" name="LDOWNSAMPLE"> F  </i>
   <i type="logical" name="LCHARG"> T  </i>
   <i type="logical" name="LPARD"> F  </i>
   <i type="logical" name="LVTOT"> F  </i>
   <i type="logical" name="LVHAR"> F  </i>
   <i type="logical" name="LELF"> F  </i>
   <i type="logical" name="LOPTICS"> F  </i>
   <v name="STM">      0.00000000      0.00000000      0.00000000      0.00000000      0.00000000      0.00000000      0.00000000</v>
  </separator>
  <separator name="performance" >
   <i type="int" name="NPAR">    32</i>
   <i type="int" name="NSIM">     4</i>
   <i type="int" name="NBLK">    -1</i>
   <i type="logical" name="LPLANE"> T  </i>
   <i type="logical" name="LSCALAPACK"> T  </i>
   <i type="logical" name="LSCAAWARE"> T  </i>
   <i type="logical" name="LSCALU"> F  </i>
   <i type="logical" name="LASYNC"> F  </i>
   <i type="logical" name="LORBITALREAL"> F  </i>
  </separator>
  <separator name="miscellaneous" >
   <i type="int" name="IDIOT">     3</i>
   <i type="int" name="PHON_NSTRUCT">    -1</i>
   <i type="logical" name="LMUSIC"> F  </i>
   <v name="POMASS">     26.98200000</v>
   <v name="DARWINR">      0.00000000</v>
   <v name="DARWINV">      1.00000000</v>
   <i type="logical" name="LCORR"> T  </i>
  </separator>
  <i type="logical" name="GGA_COMPAT"> T  </i>
  <i type="logical" name="LBERRY"> F  </i>
  <i type="int" name="ICORELEVEL">     0</i>
  <i type="logical" name="LDAU"> F  </i>
  <i type="int" name="I_CONSTRAINED_M">     0</i>
  <separator name="electronic exchange-correlation" >
   <i type="string" name="GGA    ">PE</i>
   <i type="string" name="XC_C">1</i>
   <i type="int" name="VOSKOWN">     0</i>
   <i type="logical" name="LHFCALC"> F  </i>
   <i type="string" name="PRECFOCK"></i>
   <i type="logical" name="LSYMGRAD"> F  </i>
   <i type="logical" name="LHFONE"> F  </i>
   <i type="logical" name="LRHFCALC"> F  </i>
   <i type="logical" name="LTHOMAS"> F  </i>
   <i type="logical" name="LMODELHF"> F  </i>
   <i type="logical" name="LFOCKACE"> F  </i>
   <i name="ENCUT4O">     -1.00000000</i>
   <i type="int" name="EXXOEP">     0</i>
   <i type="int" name="FOURORBIT">     0</i>
   <i name="AEXX">      0.00000000</i>
   <i name="HFALPHA">      0.00000000</i>
   <i name="MCALPHA">      0.00000000</i>
   <i name="ALDAX">      1.00000000</i>
   <i name="AGGAX">      1.00000000</i>
   <i name="AMGGAX">      1.00000000</i>
   <i name="ALDAC">      1.00000000</i>
   <i name="AGGAC">      1.00000000</i>
   <i name="AMGGAC">      1.00000000</i>
   <i type="int" name="NKREDX">     1</i>
   <i type="int" name="NKREDY">     1</i>
   <i type="int" name="NKREDZ">     1</i>
   <i type="logical" name="SHIFTRED"> F  </i>
   <i type="logical" name="ODDONLY"> F  </i>
   <i type="logical" name="EVENONLY"> F  </i>
   <i type="int" name="LMAXFOCK">     0</i>
   <i type="int" name="NMAXFOCKAE">     0</i>
   <i type="logical" name="LFOCKAEDFT"> F  </i>
   <i name="HFSCREEN">      0.00000000</i>
   <i name="HFSCREENC">      0.00000000</i>
   <i type="int" name="NBANDSGWLOW">     0</i>
  </separator>
  <separator name="vdW DFT" >
   <i type="logical" name="LUSE_VDW"> F  </i>
   <i type="int" name="IVDW_NL">    -1</i>
   <i type="logical" name="LSPIN_VDW"> F  </i>
   <i name="ZAB_VDW">     -0.84910000</i>
   <i name="GAMMA_VDW">      1.39626340</i>
   <i name="ALPHA_VDW">      0.00000000</i>
   <i name="PARAM1">      0.12340000</i>
   <i name="PARAM2">      1.00000000</i>
   <i name="BPARAM">      6.30000000</i>
   <i name="CPARAM">      0.00930000</i>
  </separator>
  <separator name="model GW" >
   <i type="int" name="MODEL_GW">     0</i>
   <i name="MODEL_EPS0">      9.88303283</i>
   <i name="MODEL_ALPHA">      1.00000000</i>
  </separator>
  <separator name="linear response parameters" >
   <i type="logical" name="LEPSILON"> F  </i>
   <i type="logical" name="LRPA"> F  </i>
   <i type="logical" name="LNABLA"> F  </i>
   <i type="logical" name="LVEL"> F  </i>
   <i name="CSHIFT">      0.10000000</i>
   <i name="OMEGAMAX">     -1.00000000</i>
   <i name="DEG_THRESHOLD">      0.00200000</i>
   <i name="RTIME">     -0.10000000</i>
   <i name="WPLASMAI">      0.00000000</i>
   <v name="DFIELD">      0.00000000      0.00000000      0.00000000</v>
   <v name="WPLASMA">      0.00000000      0.00000000      0.00000000      0.00000000      0.00000000      0.00000000      0.00000000      0.00000000      0.00000000</v>
  </separator>
  <separator name="orbital magnetization" >
   <i type="logical" name="NUCIND"> F  </i>
   <v name="MAGPOS">      0.00000000      0.00000000      0.00000000</v>
   <i type="logical" name="LNICSALL"> T  </i>
   <i type="logical" name="ORBITALMAG"> F  </i>
   <i type="logical" name="LMAGBLOCH"> F  </i>
   <i type="logical" name="LCHIMAG"> F  </i>
   <i type="logical" name="LGAUGE"> T  </i>
   <i type="int" name="MAGATOM">     0</i>
   <v name="MAGDIPOL">      0.00000000      0.00000000      0.00000000</v>
   <v name="AVECCONST">      0.00000000      0.00000000      0.00000000</v>
  </separator>
  <separator name="response functions" >
   <i type="logical" name="LALL_IN_ONE"> F  </i>
   <i type="int" name="IALL_IN_ONE">    -1</i>
   <i type="int" name="NBANDS_WAVE">    -1</i>
   <i type="logical" name="LFINITE_TEMPERATURE"> F  </i>
   <i type="logical" name="LADDER"> F  </i>
   <i type="logical" name="LRPAFORCE"> F  </i>
   <i type="logical" name="LFXC"> F  </i>
   <i type="logical" name="LHARTREE"> T  </i>
   <i type="int" name="IBSE">     0</i>
   <v type="int" name="KPOINT">    -1     0     0     0</v>
   <i type="logical" name="LTCTC"> F  </i>
   <i type="logical" name="LTCTE"> F  </i>
   <i type="logical" name="LTETE"> F  </i>
   <i type="logical" name="LTRIPLET"> F  </i>
   <i type="logical" name="LFXCEPS"> F  </i>
   <i type="logical" name="LFXHEG"> F  </i>
   <i type="int" name="NATURALO">     2</i>
   <i type="logical" name="LHOLEGF"> F  </i>
   <i type="logical" name="L2ORDER"> F  </i>
   <i type="logical" name="LDMP1"> F  </i>
   <i type="logical" name="LMP2LT"> F  </i>
   <i type="logical" name="LSMP2LT"> F  </i>
   <i type="logical" name="LGWLF"> F  </i>
   <i name="ENCUTGW">     -1.60000002</i>
   <i name="ENCUTGWSOFT">     -1.60000002</i>
   <i name="ENCUTLF">     -1.00000000</i>
   <i type="logical" name="ESF_SPLINES"> F  </i>
   <i name="ESF_CONV">      0.01000000</i>
   <i type="int" name="ESF_NINTER">    15</i>
   <i type="int" name="LMAXMP2">    -1</i>
   <i name="SCISSOR">      0.00000000</i>
   <i type="int" name="NOMEGA">     0</i>
   <i type="int" name="NOMEGAR">     0</i>
   <i type="int" name="NBANDSGW">    -1</i>
   <i type="int" name="NBANDSO">    -1</i>
   <i type="int" name="NBANDSV">    -1</i>
   <i type="int" name="NELMGW">     1</i>
   <i type="int" name="NELMHF">     1</i>
   <i type="int" name="DIM">     3</i>
   <i type="int" name="IESPILON">     4</i>
   <i type="int" name="ANTIRES">     0</i>
   <i name="OMEGAMAX">    -30.00000000</i>
   <i name="OMEGAMIN">    -30.00000000</i>
   <i name="OMEGATL">   -200.00000000</i>
   <i type="int" name="OMEGAGRID">     0</i>
   <i name="CSHIFT">     -0.10000000</i>
   <i type="logical" name="LSELFENERGY"> F  </i>
   <i type="logical" name="LSPECTRAL"> F  </i>
   <i type="logical" name="LSPECTRALGW"> F  </i>
   <i type="logical" name="LSINGLES"> F  </i>
   <i type="logical" name="LFERMIGW"> F  </i>
   <i type="logical" name="ODDONLYGW"> F  </i>
   <i type="logical" name="EVENONLYGW"> F  </i>
   <i type="int" name="NKREDLFX">     1</i>
   <i type="int" name="NKREDLFY">     1</i>
   <i type="int" name="NKREDLFZ">     1</i>
   <i type="int" name="MAXMEM">  2800</i>
   <i type="int" name="TELESCOPE">     0</i>
   <i type="int" name="NTAUPAR">    -1</i>
   <i type="int" name="NOMEGAPAR">    -1</i>
   <i name="DAMP_NEWTON">      0.80000001</i>
   <i name="LAMBDA">      1.00000000</i>
  </separator>
  <separator name="External order field" >
   <i name="OFIELD_KAPPA">      0.00000000</i>
   <v name="OFIELD_K">      0.00000000      0.00000000      0.00000000</v>
   <i name="OFIELD_Q6_NEAR">      0.00000000</i>
   <i name="OFIELD_Q6_FAR">      0.00000000</i>
   <i name="OFIELD_A">      0.00000000</i>
  </separator>
  <separator name="optional k-points parameters" >
   <i type="int" name="KPOINTS_OPT_MODE">     1</i>
   <i type="logical" name="LKPOINTS_OPT"> F  </i>
  </separator>
 </parameters>
 <atominfo>
  <atoms>       1 </atoms>
  <types>       1 </types>
  <array name="atoms" >
   <dimension dim="1">ion</dimension>
   <field type="string">element</field>
   <field type="int">atomtype</field>
   <set>
    <rc><c>Al</c><c>   1</c></rc>
   </set>
  </array>
  <array name="atomtypes" >
   <dimension dim="1">type</dimension>
   <field type="int">atomspertype</field>
   <field type="string">element</field>
   <field>mass</field>
   <field>valence</field>
   <field type="string">pseudopotential</field>
   <set>
    <rc><c>   1</c><c>Al</c><c>     26.98200000</c><c>      3.00000000</c><c> PAW_PBE Al 04Jan2001                   </c></rc>
   </set>
  </array>
 </atominfo>
 <structure name="initialpos" >
  <crystal>
   <varray name="basis" >
    <v>       0.00000000       2.01946500       2.01946500 </v>
    <v>       2.01946500       0.00000000       2.01946500 </v>
    <v>       2.01946500       2.01946500       0.00000000 </v>
   </varray>
   <i name="volume">     16.47172138 </i>
   <varray name="rec_basis" >
    <v>      -0.24759033       0.24759033       0.24759033 </v>
    <v>       0.24759033      -0.24759033       0.24759033 </v>
    <v>       0.24759033       0.24759033      -0.24759033 </v>
   </varray>
  </crystal>
  <varray name="positions" >
   <v>       0.00000000       0.00000000       0.00000000 </v>
  </varray>
 </structure>
 <calculation>
  <scstep>
   <time name="dav">    1.54    1.55</time>
   <time name="total">    1.67    1.68</time>
   <energy>
    <i name="alphaZ">     -0.20391384 </i>
    <i name="ewald">    -73.55776684 </i>
    <i name="hartreedc">     -0.10076178 </i>
    <i name="XCdc">    -26.18325471 </i>
    <i name="pawpsdc">     35.53514605 </i>
    <i name="pawaedc">     -3.58069100 </i>
    <i name="eentropy">      0.00018600 </i>
    <i name="bandstr">     11.04368274 </i>
    <i name="atom">     53.53845706 </i>
    <i name="e_fr_energy">     -3.50891631 </i>
    <i name="e_wo_entrp">     -3.50910231 </i>
    <i name="e_0_energy">     -3.50897831 </i>
   </energy>
  </scstep>
  <scstep>
   <time name="dav">    1.80    1.81</time>
   <time name="total">    1.80    1.81</time>
   <energy>
    <i name="e_fr_energy">     -3.67970149 </i>
    <i name="e_wo_entrp">     -3.67926065 </i>
    <i name="e_0_energy">     -3.67955454 </i>
   </energy>
  </scstep>
  <scstep>
   <time name="dav">    1.50    1.50</time>
   <time name="total">    1.50    1.50</time>
   <energy>
    <i name="e_fr_energy">     -3.67972792 </i>
    <i name="e_wo_entrp">     -3.67928668 </i>
    <i name="e_0_energy">     -3.67958084 </i>
   </energy>
  </scstep>
  <scstep>
   <time name="dav">    2.56    2.57</time>
   <time name="total">    2.56    2.57</time>
   <energy>
    <i name="e_fr_energy">     -3.67972792 </i>
    <i name="e_wo_entrp">     -3.67928668 </i>
    <i name="e_0_energy">     -3.67958084 </i>
   </energy>
  </scstep>
  <scstep>
   <time name="dav">    1.46    1.47</time>
   <time name="total">    1.50    1.51</time>
   <energy>
    <i name="e_fr_energy">     -3.67972792 </i>
    <i name="e_wo_entrp">     -3.67928668 </i>
    <i name="e_0_energy">     -3.67958084 </i>
   </energy>
  </scstep>
  <scstep>
   <time name="diag">    0.29    0.29</time>
   <time name="diis">    0.29    0.29</time>
   <time name="orth">    0.03    0.03</time>
   <time name="total">    0.77    0.77</time>
   <energy>
    <i name="e_fr_energy">     -3.74687950 </i>
    <i name="e_wo_entrp">     -3.74643448 </i>
    <i name="e_0_energy">     -3.74673116 </i>
   </energy>
  </scstep>
  <scstep>
   <time name="diag">    0.28    0.29</time>
   <time name="diis">    0.29    0.29</time>
   <time name="orth">    0.03    0.03</time>
   <time name="total">    0.76    0.77</time>
   <energy>
    <i name="e_fr_energy">     -3.73745465 </i>
    <i name="e_wo_entrp">     -3.73694641 </i>
    <i name="e_0_energy">     -3.73728523 </i>
   </energy>
  </scstep>
  <scstep>
   <time name="diag">    0.28    0.28</time>
   <time name="diis">    0.29    0.29</time>
   <time name="orth">    0.03    0.03</time>
   <time name="total">    0.76    0.76</time>
   <energy>
    <i name="e_fr_energy">     -3.73771979 </i>
    <i name="e_wo_entrp">     -3.73718844 </i>
    <i name="e_0_energy">     -3.73754267 </i>
   </energy>
  </scstep>
  <scstep>
   <time name="diag">    0.28    0.28</time>
   <time name="diis">    0.29    0.29</time>
   <time name="orth">    0.03    0.03</time>
   <time name="total">    0.72    0.72</time>
   <energy>
    <i name="alphaZ">     -0.20391384 </i>
    <i name="ewald">    -73.55776684 </i>
    <i name="hartreedc">     -0.10322229 </i>
    <i name="XCdc">    -26.12754231 </i>
    <i name="pawpsdc">     35.64488253 </i>
    <i name="pawaedc">     -3.70093015 </i>
    <i name="eentropy">     -0.00053163 </i>
    <i name="bandstr">     10.77289524 </i>
    <i name="atom">     53.53845706 </i>
    <i name="e_fr_energy">     -3.73767222 </i>
    <i name="e_wo_entrp">     -3.73714059 </i>
    <i name="e_0_energy">     -3.73749501 </i>
   </energy>
  </scstep>
  <structure>
   <crystal>
    <varray name="basis" >
     <v>       0.00000000       2.01946500       2.01946500 </v>
     <v>       2.01946500       0.00000000       2.01946500 </v>
     <v>       2.01946500       2.01946500       0.00000000 </v>
    </varray>
    <i name="volume">     16.47172138 </i>
    <varray name="rec_basis" >
     <v>      -0.24759033       0.24759033       0.24759033 </v>
     <v>       0.24759033      -0.24759033       0.24759033 </v>
     <v>       0.24759033       0.24759033      -0.24759033 </v>
    </varray>
   </crystal>
   <varray name="positions" >
    <v>       0.00000000       0.00000000       0.00000000 </v>
   </varray>
  </structure>
  <varray name="forces" >
   <v>      -0.00000000       0.00000000      -0.00000000 </v>
  </varray>
  <varray name="stress" >
   <v>      -1.19386696      -0.00000000       0.00000000 </v>
   <v>      -0.00000000      -1.19386696       0.00000000 </v>
   <v>       0.00000000       0.00000000      -1.19386696 </v>
  </varray>
  <energy>
   <i name="e_fr_energy">     -3.73767222 </i>
   <i name="e_wo_entrp">     -3.73714059 </i>
   <i name="e_0_energy">     -3.73749501 </i>
  </energy>
  <time name="totalsc">   13.04   13.11</time>
  <eigenvalues>
   <array>
    <dimension dim="1">band</dimension>
    <dimension dim="2">kpoint</dimension>
    <dimension dim="3">spin</dimension>
    <field>eigene</field>
    <field>occ</field>
    <set>
     <set comment="spin 1">
      <set comment="kpoint 1">
       <r>   -3.1283    1.0000 </r>
       <r>   20.6466    0.0000 </r>
       <r>   20.6466    0.0000 </r>
       <r>   20.6466    0.0000 </r>
       <r>   22.1528    0.0000 </r>
       <r>   22.1528    0.0000 </r>
       <r>   22.1528    0.0000 </r>
       <r>   24.4944    0.0000 </r>
       <r>   27.4547    0.0000 </r>
       <r>   27.4547    0.0000 </r>
       <r>   30.3293    0.0000 </r>
       <r>   32.6814    0.0000 </r>
       <r>   32.6814    0.0000 </r>
       <r>   32.6814    0.0000 </r>
       <r>   41.3228    0.0000 </r>
       <r>   56.1262    0.0000 </r>
       <r>   56.1262    0.0000 </r>
       <r>   56.1262    0.0000 </r>
       <r>   56.1862    0.0000 </r>
       <r>   59.5073    0.0000 </r>
       <r>   59.5073    0.0000 </r>
       <r>   59.5073    0.0000 </r>
       <r>   63.1391    0.0000 </r>
       <r>   63.1392    0.0000 </r>
       <r>   65.3832    0.0000 </r>
       <r>   65.3832    0.0000 </r>
       <r>   65.3832    0.0000 </r>
       <r>   73.5478    0.0000 </r>
       <r>   73.5478    0.0000 </r>
       <r>   73.5478    0.0000 </r>
       <r>   81.2279    0.0000 </r>
       <r>   83.4841    0.0000 </r>
      </set>
      <set comment="kpoint 2">
       <r>   -2.9895    1.0000 </r>
       <r>   18.5082    0.0000 </r>
       <r>   20.1913    0.0000 </r>
       <r>   20.1913    0.0000 </r>
       <r>   22.7922    0.0000 </r>
       <r>   22.8226    0.0000 </r>
       <r>   22.8226    0.0000 </r>
       <r>   25.8961    0.0000 </r>
       <r>   26.6981    0.0000 </r>
       <r>   26.6981    0.0000 </r>
       <r>   29.8292    0.0000 </r>
       <r>   33.3881    0.0000 </r>
       <r>   33.7174    0.0000 </r>
       <r>   33.7174    0.0000 </r>
       <r>   41.8713    0.0000 </r>
       <r>   55.6300    0.0000 </r>
       <r>   55.9647    0.0000 </r>
       <r>   55.9647    0.0000 </r>
       <r>   56.4470    0.0000 </r>
       <r>   58.0662    0.0000 </r>
       <r>   58.0662    0.0000 </r>
       <r>   59.4966    0.0000 </r>
       <r>   61.9970    0.0000 </r>
       <r>   61.9971    0.0000 </r>
       <r>   65.5082    0.0000 </r>
       <r>   68.2404    0.0000 </r>
       <r>   68.2405    0.0000 </r>
       <r>   72.4288    0.0000 </r>
       <r>   73.4173    0.0000 </r>
       <r>   73.4173    0.0000 </r>
       <r>   82.4648    0.0000 </r>
       <r>   82.7281    0.0000 </r>
      </set>
      <set comment="kpoint 3">
       <r>   -2.5738    1.0000 </r>
       <r>   15.6197    0.0000 </r>
       <r>   19.5584    0.0000 </r>
       <r>   19.5584    0.0000 </r>
       <r>   22.7004    0.0000 </r>
       <r>   23.9491    0.0000 </r>
       <r>   23.9491    0.0000 </r>
       <r>   25.4252    0.0000 </r>
       <r>   25.4252    0.0000 </r>
       <r>   28.6219    0.0000 </r>
       <r>   28.7391    0.0000 </r>
       <r>   35.2333    0.0000 </r>
       <r>   35.9677    0.0000 </r>
       <r>   35.9677    0.0000 </r>
       <r>   43.3309    0.0000 </r>
       <r>   53.8810    0.0000 </r>
       <r>   53.8810    0.0000 </r>
       <r>   54.7158    0.0000 </r>
       <r>   56.6150    0.0000 </r>
       <r>   56.6314    0.0000 </r>
       <r>   56.6314    0.0000 </r>
       <r>   59.3266    0.0000 </r>
       <r>   61.8809    0.0000 </r>
       <r>   61.8809    0.0000 </r>
       <r>   65.8776    0.0000 </r>
       <r>   70.3625    0.0000 </r>
       <r>   71.4554    0.0000 </r>
       <r>   71.4554    0.0000 </r>
       <r>   73.3696    0.0000 </r>
       <r>   73.3696    0.0000 </r>
       <r>   80.4914    0.0000 </r>
       <r>   80.4916    0.0000 </r>
      </set>
      <set comment="kpoint 4">
       <r>   -1.8836    1.0000 </r>
       <r>   12.8063    0.0000 </r>
       <r>   19.0922    0.0000 </r>
       <r>   19.0922    0.0000 </r>
       <r>   22.4724    0.0000 </r>
       <r>   23.4373    0.0000 </r>
       <r>   23.4373    0.0000 </r>
       <r>   26.0681    0.0000 </r>
       <r>   26.0681    0.0000 </r>
       <r>   27.4509    0.0000 </r>
       <r>   31.3588    0.0000 </r>
       <r>   37.9925    0.0000 </r>
       <r>   38.7038    0.0000 </r>
       <r>   38.7038    0.0000 </r>
       <r>   45.3736    0.0000 </r>
       <r>   50.3292    0.0000 </r>
       <r>   50.3292    0.0000 </r>
       <r>   53.4083    0.0000 </r>
       <r>   56.4968    0.0000 </r>
       <r>   56.4968    0.0000 </r>
       <r>   56.7865    0.0000 </r>
       <r>   58.8058    0.0000 </r>
       <r>   62.1839    0.0000 </r>
       <r>   62.1839    0.0000 </r>
       <r>   66.4784    0.0000 </r>
       <r>   68.3249    0.0000 </r>
       <r>   70.5729    0.0000 </r>
       <r>   70.5730    0.0000 </r>
       <r>   74.9028    0.0000 </r>
       <r>   74.9036    0.0000 </r>
       <r>   78.0407    0.0000 </r>
       <r>   79.0690    0.0000 </r>
      </set>
      <set comment="kpoint 5">
       <r>   -0.9230    1.0000 </r>
       <r>   10.1635   -0.0000 </r>
       <r>   18.8414    0.0000 </r>
       <r>   18.8414    0.0000 </r>
       <r>   22.1653    0.0000 </r>
       <r>   22.1653    0.0000 </r>
       <r>   22.3461    0.0000 </r>
       <r>   26.1668    0.0000 </r>
       <r>   27.8586    0.0000 </r>
       <r>   27.8586    0.0000 </r>
       <r>   33.9527    0.0000 </r>
       <r>   41.3894    0.0000 </r>
       <r>   41.5362    0.0000 </r>
       <r>   41.5362    0.0000 </r>
       <r>   47.0756    0.0000 </r>
       <r>   47.0756    0.0000 </r>
       <r>   47.6808    0.0000 </r>
       <r>   51.8431    0.0000 </r>
       <r>   56.4634    0.0000 </r>
       <r>   56.4634    0.0000 </r>
       <r>   56.9828    0.0000 </r>
       <r>   57.9030    0.0000 </r>
       <r>   62.5165    0.0000 </r>
       <r>   62.5165    0.0000 </r>
       <r>   66.2854    0.0000 </r>
       <r>   67.2783    0.0000 </r>
       <r>   67.5462    0.0000 </r>
       <r>   67.5462    0.0000 </r>
       <r>   74.6553    0.0000 </r>
       <r>   74.6553    0.0000 </r>
       <r>   75.5010    0.0000 </r>
       <r>   78.0697    0.0000 </r>
      </set>
      <set comment="kpoint 6">
       <r>    0.3028    1.0000 </r>
       <r>    7.7257    1.0347 </r>
       <r>   18.8177    0.0000 </r>
       <r>   18.8177    0.0000 </r>
       <r>   21.0453    0.0000 </r>
       <r>   21.0453    0.0000 </r>
       <r>   22.4096    0.0000 </r>
       <r>   24.9993    0.0000 </r>
       <r>   29.8627    0.0000 </r>
       <r>   29.8627    0.0000 </r>
       <r>   36.4254    0.0000 </r>
       <r>   42.2739    0.0000 </r>
       <r>   42.2739    0.0000 </r>
       <r>   44.9711    0.0000 </r>
       <r>   46.4611    0.0000 </r>
       <r>   46.4611    0.0000 </r>
       <r>   48.6490    0.0000 </r>
       <r>   51.7708    0.0000 </r>
       <r>   56.4062    0.0000 </r>
       <r>   56.4062    0.0000 </r>
       <r>   56.6778    0.0000 </r>
       <r>   57.2268    0.0000 </r>
       <r>   61.8486    0.0000 </r>
       <r>   61.8486    0.0000 </r>
       <r>   64.2369    0.0000 </r>
       <r>   64.8247    0.0000 </r>
       <r>   64.8247    0.0000 </r>
       <r>   68.2022    0.0000 </r>
       <r>   70.4873    0.0000 </r>
       <r>   74.2159    0.0000 </r>
       <r>   74.2159    0.0000 </r>
       <r>   76.9295    0.0000 </r>
      </set>
      <set comment="kpoint 7">
       <r>    1.7866    1.0000 </r>
       <r>    5.5115    1.0000 </r>
       <r>   19.0254    0.0000 </r>
       <r>   19.0254    0.0000 </r>
       <r>   20.1416    0.0000 </r>
       <r>   20.1416    0.0000 </r>
       <r>   22.6997    0.0000 </r>
       <r>   24.0140    0.0000 </r>
       <r>   31.8136    0.0000 </r>
       <r>   31.8136    0.0000 </r>
       <r>   38.6189    0.0000 </r>
       <r>   40.0996    0.0000 </r>
       <r>   40.0996    0.0000 </r>
       <r>   46.4747    0.0000 </r>
       <r>   48.9486    0.0000 </r>
       <r>   49.4171    0.0000 </r>
       <r>   49.4171    0.0000 </r>
       <r>   54.5322    0.0000 </r>
       <r>   55.1190    0.0000 </r>
       <r>   56.0629    0.0000 </r>
       <r>   56.0629    0.0000 </r>
       <r>   57.5957    0.0000 </r>
       <r>   58.9932    0.0000 </r>
       <r>   58.9932    0.0000 </r>
       <r>   62.5307    0.0000 </r>
       <r>   64.5039    0.0000 </r>
       <r>   64.5039    0.0000 </r>
       <r>   65.3852    0.0000 </r>
       <r>   69.0601    0.0000 </r>
       <r>   73.9875    0.0000 </r>
       <r>   73.9875    0.0000 </r>
       <r>   76.1631    0.0000 </r>
      </set>
      <set comment="kpoint 8">
       <r>    3.4183    1.0000 </r>
       <r>    3.6359    1.0000 </r>
       <r>   19.4467    0.0000 </r>
       <r>   19.4467    0.0000 </r>
       <r>   19.4871    0.0000 </r>
       <r>   19.4871    0.0000 </r>
       <r>   23.1560    0.0000 </r>
       <r>   23.3209    0.0000 </r>
       <r>   32.8377    0.0000 </r>
       <r>   32.8377    0.0000 </r>
       <r>   38.8909    0.0000 </r>
       <r>   38.8909    0.0000 </r>
       <r>   39.7030    0.0000 </r>
       <r>   45.6368    0.0000 </r>
       <r>   50.8093    0.0000 </r>
       <r>   51.7855    0.0000 </r>
       <r>   51.7855    0.0000 </r>
       <r>   53.6772    0.0000 </r>
       <r>   54.8405    0.0000 </r>
       <r>   54.8405    0.0000 </r>
       <r>   56.4083    0.0000 </r>
       <r>   57.6900    0.0000 </r>
       <r>   57.6900    0.0000 </r>
       <r>   58.6801    0.0000 </r>
       <r>   60.8951    0.0000 </r>
       <r>   62.9154    0.0000 </r>
       <r>   64.5911    0.0000 </r>
       <r>   64.5911    0.0000 </r>
       <r>   69.4481    0.0000 </r>
       <r>   73.9256    0.0000 </r>
       <r>   73.9256    0.0000 </r>
       <r>   75.6821    0.0000 </r>
      </set>
      <set comment="kpoint 9">
       <r>   -2.9432    1.0000 </r>
       <r>   19.2276    0.0000 </r>
       <r>   19.2276    0.0000 </r>
       <r>   19.5111    0.0000 </r>
       <r>   21.7206    0.0000 </r>
       <r>   23.8425    0.0000 </r>
       <r>   23.8425    0.0000 </r>
       <r>   25.3729    0.0000 </r>
       <r>   25.9999    0.0000 </r>
       <r>   27.6262    0.0000 </r>
       <r>   30.4936    0.0000 </r>
       <r>   32.8930    0.0000 </r>
       <r>   32.8930    0.0000 </r>
       <r>   34.9306    0.0000 </r>
       <r>   42.1111    0.0000 </r>
       <r>   55.6927    0.0000 </r>
       <r>   55.7448    0.0000 </r>
       <r>   55.7448    0.0000 </r>
       <r>   56.5710    0.0000 </r>
       <r>   58.1254    0.0000 </r>
       <r>   58.1254    0.0000 </r>
       <r>   59.3558    0.0000 </r>
       <r>   59.6306    0.0000 </r>
       <r>   63.1056    0.0000 </r>
       <r>   67.0690    0.0000 </r>
       <r>   67.0690    0.0000 </r>
       <r>   69.4122    0.0000 </r>
       <r>   71.6153    0.0000 </r>
       <r>   73.7130    0.0000 </r>
       <r>   73.7130    0.0000 </r>
       <r>   81.5564    0.0000 </r>
       <r>   83.1459    0.0000 </r>
      </set>
      <set comment="kpoint 10">
       <r>   -2.6199    1.0000 </r>
       <r>   16.6367    0.0000 </r>
       <r>   18.4392    0.0000 </r>
       <r>   19.5996    0.0000 </r>
       <r>   21.9976    0.0000 </r>
       <r>   23.6747    0.0000 </r>
       <r>   24.2269    0.0000 </r>
       <r>   25.0542    0.0000 </r>
       <r>   27.1141    0.0000 </r>
       <r>   28.2151    0.0000 </r>
       <r>   30.0762    0.0000 </r>
       <r>   34.1227    0.0000 </r>
       <r>   34.2029    0.0000 </r>
       <r>   36.7495    0.0000 </r>
       <r>   43.3986    0.0000 </r>
       <r>   53.8750    0.0000 </r>
       <r>   54.3673    0.0000 </r>
       <r>   55.7343    0.0000 </r>
       <r>   56.2338    0.0000 </r>
       <r>   56.6729    0.0000 </r>
       <r>   57.1229    0.0000 </r>
       <r>   58.9764    0.0000 </r>
       <r>   59.6270    0.0000 </r>
       <r>   62.6109    0.0000 </r>
       <r>   67.8134    0.0000 </r>
       <r>   68.8291    0.0000 </r>
       <r>   70.9346    0.0000 </r>
       <r>   72.1795    0.0000 </r>
       <r>   73.1665    0.0000 </r>
       <r>   74.0859    0.0000 </r>
       <r>   79.7117    0.0000 </r>
       <r>   80.8259    0.0000 </r>
      </set>
      <set comment="kpoint 11">
       <r>   -2.0214    1.0000 </r>
       <r>   13.8174    0.0000 </r>
       <r>   17.8697    0.0000 </r>
       <r>   19.2890    0.0000 </r>
       <r>   21.8505    0.0000 </r>
       <r>   23.4493    0.0000 </r>
       <r>   24.1087    0.0000 </r>
       <r>   25.2878    0.0000 </r>
       <r>   27.1330    0.0000 </r>
       <r>   28.8740    0.0000 </r>
       <r>   30.9992    0.0000 </r>
       <r>   36.5280    0.0000 </r>
       <r>   36.8428    0.0000 </r>
       <r>   39.0657    0.0000 </r>
       <r>   45.3784    0.0000 </r>
       <r>   50.2632    0.0000 </r>
       <r>   51.7284    0.0000 </r>
       <r>   54.6504    0.0000 </r>
       <r>   55.8355    0.0000 </r>
       <r>   56.4468    0.0000 </r>
       <r>   57.1255    0.0000 </r>
       <r>   59.2578    0.0000 </r>
       <r>   59.3677    0.0000 </r>
       <r>   62.5628    0.0000 </r>
       <r>   67.3854    0.0000 </r>
       <r>   68.2956    0.0000 </r>
       <r>   71.1885    0.0000 </r>
       <r>   72.3549    0.0000 </r>
       <r>   73.5368    0.0000 </r>
       <r>   75.7561    0.0000 </r>
       <r>   76.9334    0.0000 </r>
       <r>   77.8408    0.0000 </r>
      </set>
      <set comment="kpoint 12">
       <r>   -1.1511    1.0000 </r>
       <r>   11.1265   -0.0000 </r>
       <r>   17.5293    0.0000 </r>
       <r>   19.0194    0.0000 </r>
       <r>   20.4477    0.0000 </r>
       <r>   23.8349    0.0000 </r>
       <r>   24.1185    0.0000 </r>
       <r>   25.2178    0.0000 </r>
       <r>   27.6531    0.0000 </r>
       <r>   28.7419    0.0000 </r>
       <r>   33.6510    0.0000 </r>
       <r>   39.3337    0.0000 </r>
       <r>   40.2023    0.0000 </r>
       <r>   41.6670    0.0000 </r>
       <r>   46.7895    0.0000 </r>
       <r>   47.7293    0.0000 </r>
       <r>   48.6037    0.0000 </r>
       <r>   53.0500    0.0000 </r>
       <r>   55.9068    0.0000 </r>
       <r>   56.4406    0.0000 </r>
       <r>   57.2440    0.0000 </r>
       <r>   58.4388    0.0000 </r>
       <r>   59.8779    0.0000 </r>
       <r>   62.8873    0.0000 </r>
       <r>   65.3589    0.0000 </r>
       <r>   68.2775    0.0000 </r>
       <r>   68.5022    0.0000 </r>
       <r>   70.9772    0.0000 </r>
       <r>   72.6900    0.0000 </r>
       <r>   73.7546    0.0000 </r>
       <r>   77.6610    0.0000 </r>
       <r>   77.7175    0.0000 </r>
      </set>
      <set comment="kpoint 13">
       <r>   -0.0141    1.0000 </r>
       <r>    8.6247   -0.0000 </r>
       <r>   17.4216    0.0000 </r>
       <r>   18.9289    0.0000 </r>
       <r>   19.2289    0.0000 </r>
       <r>   22.9694    0.0000 </r>
       <r>   23.8540    0.0000 </r>
       <r>   26.0850    0.0000 </r>
       <r>   27.5750    0.0000 </r>
       <r>   30.6142    0.0000 </r>
       <r>   36.1766    0.0000 </r>
       <r>   41.3430    0.0000 </r>
       <r>   43.4253    0.0000 </r>
       <r>   43.8917    0.0000 </r>
       <r>   44.7600    0.0000 </r>
       <r>   46.6666    0.0000 </r>
       <r>   49.5406    0.0000 </r>
       <r>   52.0642    0.0000 </r>
       <r>   55.9461    0.0000 </r>
       <r>   56.4427    0.0000 </r>
       <r>   56.9638    0.0000 </r>
       <r>   57.5979    0.0000 </r>
       <r>   60.3006    0.0000 </r>
       <r>   62.3052    0.0000 </r>
       <r>   63.6917    0.0000 </r>
       <r>   65.2328    0.0000 </r>
       <r>   66.4316    0.0000 </r>
       <r>   70.4398    0.0000 </r>
       <r>   71.6567    0.0000 </r>
       <r>   72.1272    0.0000 </r>
       <r>   72.7833    0.0000 </r>
       <r>   76.5723    0.0000 </r>
      </set>
      <set comment="kpoint 14">
       <r>    1.3834    1.0000 </r>
       <r>    6.3382    1.0000 </r>
       <r>   17.5483    0.0000 </r>
       <r>   18.1976    0.0000 </r>
       <r>   19.1035    0.0000 </r>
       <r>   22.0067    0.0000 </r>
       <r>   24.0559    0.0000 </r>
       <r>   25.2139    0.0000 </r>
       <r>   29.5700    0.0000 </r>
       <r>   32.3501    0.0000 </r>
       <r>   38.5036    0.0000 </r>
       <r>   39.8815    0.0000 </r>
       <r>   41.5068    0.0000 </r>
       <r>   46.9427    0.0000 </r>
       <r>   47.0712    0.0000 </r>
       <r>   48.6729    0.0000 </r>
       <r>   49.1197    0.0000 </r>
       <r>   54.2069    0.0000 </r>
       <r>   55.2699    0.0000 </r>
       <r>   55.9575    0.0000 </r>
       <r>   56.3891    0.0000 </r>
       <r>   57.3732    0.0000 </r>
       <r>   59.5683    0.0000 </r>
       <r>   59.8286    0.0000 </r>
       <r>   62.9132    0.0000 </r>
       <r>   63.7064    0.0000 </r>
       <r>   64.1676    0.0000 </r>
       <r>   67.4700    0.0000 </r>
       <r>   70.6802    0.0000 </r>
       <r>   71.1783    0.0000 </r>
       <r>   71.4022    0.0000 </r>
       <r>   75.5060    0.0000 </r>
      </set>
      <set comment="kpoint 15">
       <r>    3.0284    1.0000 </r>
       <r>    4.2877    1.0000 </r>
       <r>   17.4287    0.0000 </r>
       <r>   17.9104    0.0000 </r>
       <r>   19.4890    0.0000 </r>
       <r>   21.2623    0.0000 </r>
       <r>   24.2977    0.0000 </r>
       <r>   24.5939    0.0000 </r>
       <r>   31.5603    0.0000 </r>
       <r>   32.8791    0.0000 </r>
       <r>   39.0655    0.0000 </r>
       <r>   39.1372    0.0000 </r>
       <r>   40.2434    0.0000 </r>
       <r>   46.4247    0.0000 </r>
       <r>   50.3611    0.0000 </r>
       <r>   50.4273    0.0000 </r>
       <r>   51.3459    0.0000 </r>
       <r>   54.0661    0.0000 </r>
       <r>   54.6750    0.0000 </r>
       <r>   55.7859    0.0000 </r>
       <r>   56.4189    0.0000 </r>
       <r>   57.0118    0.0000 </r>
       <r>   57.8819    0.0000 </r>
       <r>   58.9860    0.0000 </r>
       <r>   61.8896    0.0000 </r>
       <r>   62.8673    0.0000 </r>
       <r>   63.3004    0.0000 </r>
       <r>   64.6397    0.0000 </r>
       <r>   70.3710    0.0000 </r>
       <r>   70.7844    0.0000 </r>
       <r>   71.6531    0.0000 </r>
       <r>   74.9393    0.0000 </r>
      </set>
      <set comment="kpoint 16">
       <r>    2.4549    1.0000 </r>
       <r>    4.9421    1.0000 </r>
       <r>   16.8982    0.0000 </r>
       <r>   18.5078    0.0000 </r>
       <r>   20.1149    0.0000 </r>
       <r>   20.7464    0.0000 </r>
       <r>   23.7772    0.0000 </r>
       <r>   25.1698    0.0000 </r>
       <r>   31.4309    0.0000 </r>
       <r>   32.3778    0.0000 </r>
       <r>   38.3808    0.0000 </r>
       <r>   39.9396    0.0000 </r>
       <r>   40.5747    0.0000 </r>
       <r>   46.6270    0.0000 </r>
       <r>   48.7454    0.0000 </r>
       <r>   50.0257    0.0000 </r>
       <r>   51.5451    0.0000 </r>
       <r>   54.3082    0.0000 </r>
       <r>   55.1378    0.0000 </r>
       <r>   55.7178    0.0000 </r>
       <r>   56.1417    0.0000 </r>
       <r>   57.5843    0.0000 </r>
       <r>   57.7698    0.0000 </r>
       <r>   59.0780    0.0000 </r>
       <r>   62.0279    0.0000 </r>
       <r>   62.4932    0.0000 </r>
       <r>   64.0591    0.0000 </r>
       <r>   65.3581    0.0000 </r>
       <r>   70.6072    0.0000 </r>
       <r>   70.7638    0.0000 </r>
       <r>   71.4151    0.0000 </r>
       <r>   75.0716    0.0000 </r>
      </set>
      <set comment="kpoint 17">
       <r>    0.8891    1.0000 </r>
       <r>    7.0743    1.0000 </r>
       <r>   16.6096    0.0000 </r>
       <r>   19.3364    0.0000 </r>
       <r>   20.4643    0.0000 </r>
       <r>   20.9736    0.0000 </r>
       <r>   23.4146    0.0000 </r>
       <r>   26.0158    0.0000 </r>
       <r>   29.3037    0.0000 </r>
       <r>   31.2129    0.0000 </r>
       <r>   37.8255    0.0000 </r>
       <r>   40.0700    0.0000 </r>
       <r>   43.0409    0.0000 </r>
       <r>   45.4998    0.0000 </r>
       <r>   46.1956    0.0000 </r>
       <r>   48.7423    0.0000 </r>
       <r>   48.8421    0.0000 </r>
       <r>   53.0801    0.0000 </r>
       <r>   56.0258    0.0000 </r>
       <r>   56.0760    0.0000 </r>
       <r>   56.1514    0.0000 </r>
       <r>   57.7150    0.0000 </r>
       <r>   60.2566    0.0000 </r>
       <r>   61.1242    0.0000 </r>
       <r>   62.0026    0.0000 </r>
       <r>   63.4808    0.0000 </r>
       <r>   65.4325    0.0000 </r>
       <r>   69.4307    0.0000 </r>
       <r>   70.6990    0.0000 </r>
       <r>   70.7477    0.0000 </r>
       <r>   71.9910    0.0000 </r>
       <r>   75.6119    0.0000 </r>
      </set>
      <set comment="kpoint 18">
       <r>   -0.4224    1.0000 </r>
       <r>    9.4331   -0.0000 </r>
       <r>   16.5642    0.0000 </r>
       <r>   20.2807    0.0000 </r>
       <r>   20.5234    0.0000 </r>
       <r>   22.0493    0.0000 </r>
       <r>   23.2713    0.0000 </r>
       <r>   26.9576    0.0000 </r>
       <r>   27.1845    0.0000 </r>
       <r>   29.4522    0.0000 </r>
       <r>   35.4605    0.0000 </r>
       <r>   40.5876    0.0000 </r>
       <r>   42.7128    0.0000 </r>
       <r>   43.8750    0.0000 </r>
       <r>   44.4869    0.0000 </r>
       <r>   47.7037    0.0000 </r>
       <r>   48.9473    0.0000 </r>
       <r>   51.8830    0.0000 </r>
       <r>   56.0338    0.0000 </r>
       <r>   56.2208    0.0000 </r>
       <r>   57.2974    0.0000 </r>
       <r>   57.7975    0.0000 </r>
       <r>   61.0600    0.0000 </r>
       <r>   61.9038    0.0000 </r>
       <r>   64.4011    0.0000 </r>
       <r>   65.2254    0.0000 </r>
       <r>   68.3021    0.0000 </r>
       <r>   69.8856    0.0000 </r>
       <r>   71.4530    0.0000 </r>
       <r>   73.7347    0.0000 </r>
       <r>   74.7489    0.0000 </r>
       <r>   76.2801    0.0000 </r>
      </set>
      <set comment="kpoint 19">
       <r>   -1.4711    1.0000 </r>
       <r>   11.9966    0.0000 </r>
       <r>   16.7633    0.0000 </r>
       <r>   20.5324    0.0000 </r>
       <r>   21.6958    0.0000 </r>
       <r>   23.1921    0.0000 </r>
       <r>   23.4336    0.0000 </r>
       <r>   25.2722    0.0000 </r>
       <r>   26.9453    0.0000 </r>
       <r>   28.7887    0.0000 </r>
       <r>   32.9195    0.0000 </r>
       <r>   37.7859    0.0000 </r>
       <r>   39.4921    0.0000 </r>
       <r>   41.2457    0.0000 </r>
       <r>   46.6937    0.0000 </r>
       <r>   47.2962    0.0000 </r>
       <r>   50.5497    0.0000 </r>
       <r>   53.2883    0.0000 </r>
       <r>   55.9606    0.0000 </r>
       <r>   56.2211    0.0000 </r>
       <r>   57.2739    0.0000 </r>
       <r>   58.7601    0.0000 </r>
       <r>   60.5243    0.0000 </r>
       <r>   61.7002    0.0000 </r>
       <r>   67.0117    0.0000 </r>
       <r>   68.0750    0.0000 </r>
       <r>   69.1641    0.0000 </r>
       <r>   70.9237    0.0000 </r>
       <r>   73.8822    0.0000 </r>
       <r>   74.7734    0.0000 </r>
       <r>   77.4436    0.0000 </r>
       <r>   78.3562    0.0000 </r>
      </set>
      <set comment="kpoint 20">
       <r>   -2.2513    1.0000 </r>
       <r>   14.7175    0.0000 </r>
       <r>   17.2178    0.0000 </r>
       <r>   20.8658    0.0000 </r>
       <r>   22.8426    0.0000 </r>
       <r>   23.3924    0.0000 </r>
       <r>   23.9647    0.0000 </r>
       <r>   24.6628    0.0000 </r>
       <r>   25.6008    0.0000 </r>
       <r>   29.6850    0.0000 </r>
       <r>   30.3112    0.0000 </r>
       <r>   34.8332    0.0000 </r>
       <r>   36.8675    0.0000 </r>
       <r>   38.3784    0.0000 </r>
       <r>   44.4843    0.0000 </r>
       <r>   50.7965    0.0000 </r>
       <r>   53.9304    0.0000 </r>
       <r>   54.6668    0.0000 </r>
       <r>   55.9021    0.0000 </r>
       <r>   56.1938    0.0000 </r>
       <r>   57.1421    0.0000 </r>
       <r>   59.4078    0.0000 </r>
       <r>   60.2636    0.0000 </r>
       <r>   61.3936    0.0000 </r>
       <r>   68.5539    0.0000 </r>
       <r>   68.6164    0.0000 </r>
       <r>   70.7911    0.0000 </r>
       <r>   72.5106    0.0000 </r>
       <r>   72.6900    0.0000 </r>
       <r>   75.3857    0.0000 </r>
       <r>   78.6563    0.0000 </r>
       <r>   79.5541    0.0000 </r>
      </set>
      <set comment="kpoint 21">
       <r>   -2.7584    1.0000 </r>
       <r>   17.2923    0.0000 </r>
       <r>   18.1341    0.0000 </r>
       <r>   21.0066    0.0000 </r>
       <r>   22.3743    0.0000 </r>
       <r>   23.2850    0.0000 </r>
       <r>   24.0844    0.0000 </r>
       <r>   25.0900    0.0000 </r>
       <r>   26.2637    0.0000 </r>
       <r>   27.6139    0.0000 </r>
       <r>   30.1813    0.0000 </r>
       <r>   33.1284    0.0000 </r>
       <r>   34.8738    0.0000 </r>
       <r>   35.7850    0.0000 </r>
       <r>   42.7628    0.0000 </r>
       <r>   54.1406    0.0000 </r>
       <r>   55.6278    0.0000 </r>
       <r>   55.9777    0.0000 </r>
       <r>   56.0701    0.0000 </r>
       <r>   56.9682    0.0000 </r>
       <r>   57.1107    0.0000 </r>
       <r>   59.5597    0.0000 </r>
       <r>   60.8422    0.0000 </r>
       <r>   61.3339    0.0000 </r>
       <r>   68.0382    0.0000 </r>
       <r>   68.5097    0.0000 </r>
       <r>   70.0867    0.0000 </r>
       <r>   72.4542    0.0000 </r>
       <r>   72.6697    0.0000 </r>
       <r>   73.6487    0.0000 </r>
       <r>   81.3651    0.0000 </r>
       <r>   81.8811    0.0000 </r>
      </set>
      <set comment="kpoint 22">
       <r>   -2.3894    1.0000 </r>
       <r>   17.5451    0.0000 </r>
       <r>   17.5451    0.0000 </r>
       <r>   17.7434    0.0000 </r>
       <r>   20.7208    0.0000 </r>
       <r>   21.7379    0.0000 </r>
       <r>   26.2936    0.0000 </r>
       <r>   26.2936    0.0000 </r>
       <r>   28.1368    0.0000 </r>
       <r>   28.8764    0.0000 </r>
       <r>   31.7573    0.0000 </r>
       <r>   33.5653    0.0000 </r>
       <r>   33.5653    0.0000 </r>
       <r>   37.7639    0.0000 </r>
       <r>   44.6754    0.0000 </r>
       <r>   53.6136    0.0000 </r>
       <r>   53.6136    0.0000 </r>
       <r>   54.9639    0.0000 </r>
       <r>   55.0985    0.0000 </r>
       <r>   56.9094    0.0000 </r>
       <r>   57.1152    0.0000 </r>
       <r>   57.1153    0.0000 </r>
       <r>   59.9776    0.0000 </r>
       <r>   62.6860    0.0000 </r>
       <r>   68.4873    0.0000 </r>
       <r>   69.5781    0.0000 </r>
       <r>   69.5781    0.0000 </r>
       <r>   73.8321    0.0000 </r>
       <r>   73.8322    0.0000 </r>
       <r>   74.3265    0.0000 </r>
       <r>   79.4496    0.0000 </r>
       <r>   79.5852    0.0000 </r>
      </set>
      <set comment="kpoint 23">
       <r>   -1.8836    1.0000 </r>
       <r>   14.9903    0.0000 </r>
       <r>   16.8840    0.0000 </r>
       <r>   18.1162    0.0000 </r>
       <r>   19.9440    0.0000 </r>
       <r>   20.9496    0.0000 </r>
       <r>   26.7971    0.0000 </r>
       <r>   27.1077    0.0000 </r>
       <r>   28.3248    0.0000 </r>
       <r>   30.8960    0.0000 </r>
       <r>   31.4922    0.0000 </r>
       <r>   34.9916    0.0000 </r>
       <r>   35.6457    0.0000 </r>
       <r>   39.2695    0.0000 </r>
       <r>   46.7078    0.0000 </r>
       <r>   50.3947    0.0000 </r>
       <r>   51.6072    0.0000 </r>
       <r>   54.6254    0.0000 </r>
       <r>   55.0005    0.0000 </r>
       <r>   56.2203    0.0000 </r>
       <r>   57.1175    0.0000 </r>
       <r>   57.2840    0.0000 </r>
       <r>   59.9886    0.0000 </r>
       <r>   62.2809    0.0000 </r>
       <r>   66.4764    0.0000 </r>
       <r>   70.1905    0.0000 </r>
       <r>   71.0223    0.0000 </r>
       <r>   72.6909    0.0000 </r>
       <r>   72.7195    0.0000 </r>
       <r>   76.6419    0.0000 </r>
       <r>   76.7173    0.0000 </r>
       <r>   77.6309    0.0000 </r>
      </set>
      <set comment="kpoint 24">
       <r>   -1.1055    1.0000 </r>
       <r>   12.3050    0.0000 </r>
       <r>   16.4580    0.0000 </r>
       <r>   17.9858    0.0000 </r>
       <r>   18.4181    0.0000 </r>
       <r>   22.3033    0.0000 </r>
       <r>   26.2241    0.0000 </r>
       <r>   26.7943    0.0000 </r>
       <r>   29.7526    0.0000 </r>
       <r>   29.8526    0.0000 </r>
       <r>   33.9868    0.0000 </r>
       <r>   37.5126    0.0000 </r>
       <r>   39.0013    0.0000 </r>
       <r>   41.2367    0.0000 </r>
       <r>   46.7795    0.0000 </r>
       <r>   48.9205    0.0000 </r>
       <r>   49.1290    0.0000 </r>
       <r>   54.9187    0.0000 </r>
       <r>   55.0322    0.0000 </r>
       <r>   55.1156    0.0000 </r>
       <r>   57.2542    0.0000 </r>
       <r>   57.3629    0.0000 </r>
       <r>   59.4211    0.0000 </r>
       <r>   62.2721    0.0000 </r>
       <r>   64.4548    0.0000 </r>
       <r>   68.9889    0.0000 </r>
       <r>   69.9552    0.0000 </r>
       <r>   70.8909    0.0000 </r>
       <r>   71.1275    0.0000 </r>
       <r>   75.3764    0.0000 </r>
       <r>   76.3320    0.0000 </r>
       <r>   77.5889    0.0000 </r>
      </set>
      <set comment="kpoint 25">
       <r>   -0.0596    1.0000 </r>
       <r>    9.7615   -0.0000 </r>
       <r>   16.2676    0.0000 </r>
       <r>   16.9922    0.0000 </r>
       <r>   17.9714    0.0000 </r>
       <r>   24.1004    0.0000 </r>
       <r>   25.0962    0.0000 </r>
       <r>   26.8482    0.0000 </r>
       <r>   28.6746    0.0000 </r>
       <r>   31.4939    0.0000 </r>
       <r>   36.5911    0.0000 </r>
       <r>   40.1222    0.0000 </r>
       <r>   42.7925    0.0000 </r>
       <r>   43.2110    0.0000 </r>
       <r>   43.9361    0.0000 </r>
       <r>   46.4570    0.0000 </r>
       <r>   51.3899    0.0000 </r>
       <r>   53.6921    0.0000 </r>
       <r>   55.2184    0.0000 </r>
       <r>   55.4939    0.0000 </r>
       <r>   56.7776    0.0000 </r>
       <r>   57.4660    0.0000 </r>
       <r>   58.6022    0.0000 </r>
       <r>   61.7318    0.0000 </r>
       <r>   63.1759    0.0000 </r>
       <r>   66.0478    0.0000 </r>
       <r>   68.4775    0.0000 </r>
       <r>   68.9796    0.0000 </r>
       <r>   69.1474    0.0000 </r>
       <r>   73.9949    0.0000 </r>
       <r>   75.0489    0.0000 </r>
       <r>   75.9819    0.0000 </r>
      </set>
      <set comment="kpoint 26">
       <r>    1.2481    1.0000 </r>
       <r>    7.4148    1.0002 </r>
       <r>   15.8913    0.0000 </r>
       <r>   16.3132    0.0000 </r>
       <r>   18.0560    0.0000 </r>
       <r>   24.0948    0.0000 </r>
       <r>   25.7238    0.0000 </r>
       <r>   27.2899    0.0000 </r>
       <r>   27.8340    0.0000 </r>
       <r>   32.9818    0.0000 </r>
       <r>   39.0054    0.0000 </r>
       <r>   39.9523    0.0000 </r>
       <r>   42.1665    0.0000 </r>
       <r>   44.9503    0.0000 </r>
       <r>   46.3129    0.0000 </r>
       <r>   47.7823    0.0000 </r>
       <r>   50.7833    0.0000 </r>
       <r>   54.5443    0.0000 </r>
       <r>   55.2736    0.0000 </r>
       <r>   55.4047    0.0000 </r>
       <r>   55.8653    0.0000 </r>
       <r>   57.6635    0.0000 </r>
       <r>   57.9647    0.0000 </r>
       <r>   60.2619    0.0000 </r>
       <r>   62.8812    0.0000 </r>
       <r>   63.8573    0.0000 </r>
       <r>   65.5766    0.0000 </r>
       <r>   66.8885    0.0000 </r>
       <r>   68.2501    0.0000 </r>
       <r>   70.2662    0.0000 </r>
       <r>   74.1648    0.0000 </r>
       <r>   75.4111    0.0000 </r>
      </set>
      <set comment="kpoint 27">
       <r>    2.8084    1.0000 </r>
       <r>    5.2910    1.0000 </r>
       <r>   15.0248    0.0000 </r>
       <r>   16.5954    0.0000 </r>
       <r>   18.3828    0.0000 </r>
       <r>   23.2899    0.0000 </r>
       <r>   25.9610    0.0000 </r>
       <r>   27.5007    0.0000 </r>
       <r>   29.0885    0.0000 </r>
       <r>   33.0064    0.0000 </r>
       <r>   39.3569    0.0000 </r>
       <r>   39.5724    0.0000 </r>
       <r>   41.3878    0.0000 </r>
       <r>   47.9870    0.0000 </r>
       <r>   48.3090    0.0000 </r>
       <r>   49.6555    0.0000 </r>
       <r>   50.7043    0.0000 </r>
       <r>   53.3447    0.0000 </r>
       <r>   55.1189    0.0000 </r>
       <r>   56.0798    0.0000 </r>
       <r>   56.2803    0.0000 </r>
       <r>   57.0352    0.0000 </r>
       <r>   57.3141    0.0000 </r>
       <r>   59.9968    0.0000 </r>
       <r>   61.7351    0.0000 </r>
       <r>   62.4348    0.0000 </r>
       <r>   64.4166    0.0000 </r>
       <r>   65.4825    0.0000 </r>
       <r>   65.8422    0.0000 </r>
       <r>   68.0406    0.0000 </r>
       <r>   74.8828    0.0000 </r>
       <r>   75.3108    0.0000 </r>
      </set>
      <set comment="kpoint 28">
       <r>    3.3807    1.0000 </r>
       <r>    4.6365    1.0000 </r>
       <r>   14.4049    0.0000 </r>
       <r>   17.1143    0.0000 </r>
       <r>   18.9552    0.0000 </r>
       <r>   22.7035    0.0000 </r>
       <r>   25.5094    0.0000 </r>
       <r>   27.9177    0.0000 </r>
       <r>   30.8973    0.0000 </r>
       <r>   31.2312    0.0000 </r>
       <r>   37.5251    0.0000 </r>
       <r>   41.2689    0.0000 </r>
       <r>   41.9253    0.0000 </r>
       <r>   47.0250    0.0000 </r>
       <r>   48.8101    0.0000 </r>
       <r>   50.6452    0.0000 </r>
       <r>   51.5055    0.0000 </r>
       <r>   53.8062    0.0000 </r>
       <r>   55.4834    0.0000 </r>
       <r>   55.4915    0.0000 </r>
       <r>   56.5284    0.0000 </r>
       <r>   57.0098    0.0000 </r>
       <r>   57.1066    0.0000 </r>
       <r>   59.6061    0.0000 </r>
       <r>   60.6327    0.0000 </r>
       <r>   61.8348    0.0000 </r>
       <r>   63.5971    0.0000 </r>
       <r>   65.8431    0.0000 </r>
       <r>   66.0691    0.0000 </r>
       <r>   67.7633    0.0000 </r>
       <r>   74.5700    0.0000 </r>
       <r>   75.6710    0.0000 </r>
      </set>
      <set comment="kpoint 29">
       <r>    1.7414    1.0000 </r>
       <r>    6.6737    1.0000 </r>
       <r>   14.0381    0.0000 </r>
       <r>   17.8695    0.0000 </r>
       <r>   19.7695    0.0000 </r>
       <r>   22.3425    0.0000 </r>
       <r>   25.0979    0.0000 </r>
       <r>   28.5350    0.0000 </r>
       <r>   28.9606    0.0000 </r>
       <r>   31.2812    0.0000 </r>
       <r>   37.3603    0.0000 </r>
       <r>   40.5238    0.0000 </r>
       <r>   43.8273    0.0000 </r>
       <r>   44.7806    0.0000 </r>
       <r>   47.5335    0.0000 </r>
       <r>   49.6278    0.0000 </r>
       <r>   51.0168    0.0000 </r>
       <r>   54.8909    0.0000 </r>
       <r>   55.2000    0.0000 </r>
       <r>   55.3124    0.0000 </r>
       <r>   55.5185    0.0000 </r>
       <r>   58.0060    0.0000 </r>
       <r>   58.5305    0.0000 </r>
       <r>   59.7114    0.0000 </r>
       <r>   60.7193    0.0000 </r>
       <r>   62.1290    0.0000 </r>
       <r>   64.9866    0.0000 </r>
       <r>   67.0087    0.0000 </r>
       <r>   67.2376    0.0000 </r>
       <r>   70.1419    0.0000 </r>
       <r>   73.7254    0.0000 </r>
       <r>   76.1791    0.0000 </r>
      </set>
      <set comment="kpoint 30">
       <r>    0.3478    1.0000 </r>
       <r>    8.9347   -0.0000 </r>
       <r>   13.9343    0.0000 </r>
       <r>   18.8574    0.0000 </r>
       <r>   20.8139    0.0000 </r>
       <r>   22.2033    0.0000 </r>
       <r>   24.8316    0.0000 </r>
       <r>   26.7422    0.0000 </r>
       <r>   28.7249    0.0000 </r>
       <r>   30.6226    0.0000 </r>
       <r>   36.9515    0.0000 </r>
       <r>   40.1131    0.0000 </r>
       <r>   42.2819    0.0000 </r>
       <r>   44.1945    0.0000 </r>
       <r>   45.9597    0.0000 </r>
       <r>   48.8264    0.0000 </r>
       <r>   50.6017    0.0000 </r>
       <r>   52.6634    0.0000 </r>
       <r>   55.3401    0.0000 </r>
       <r>   55.3410    0.0000 </r>
       <r>   56.8656    0.0000 </r>
       <r>   58.5435    0.0000 </r>
       <r>   58.8702    0.0000 </r>
       <r>   61.1769    0.0000 </r>
       <r>   61.7335    0.0000 </r>
       <r>   64.0401    0.0000 </r>
       <r>   66.9145    0.0000 </r>
       <r>   69.1090    0.0000 </r>
       <r>   69.1155    0.0000 </r>
       <r>   72.9411    0.0000 </r>
       <r>   74.6338    0.0000 </r>
       <r>   76.9940    0.0000 </r>
      </set>
      <set comment="kpoint 31">
       <r>   -0.7863    1.0000 </r>
       <r>   11.3610   -0.0000 </r>
       <r>   14.1294    0.0000 </r>
       <r>   20.0660    0.0000 </r>
       <r>   22.0642    0.0000 </r>
       <r>   22.2483    0.0000 </r>
       <r>   24.6511    0.0000 </r>
       <r>   24.7640    0.0000 </r>
       <r>   27.5092    0.0000 </r>
       <r>   31.1282    0.0000 </r>
       <r>   34.5400    0.0000 </r>
       <r>   38.0660    0.0000 </r>
       <r>   41.1008    0.0000 </r>
       <r>   43.9764    0.0000 </r>
       <r>   44.0302    0.0000 </r>
       <r>   48.7727    0.0000 </r>
       <r>   50.7364    0.0000 </r>
       <r>   53.3797    0.0000 </r>
       <r>   55.1264    0.0000 </r>
       <r>   55.2232    0.0000 </r>
       <r>   57.5097    0.0000 </r>
       <r>   58.5396    0.0000 </r>
       <r>   59.1307    0.0000 </r>
       <r>   60.9189    0.0000 </r>
       <r>   65.4309    0.0000 </r>
       <r>   65.9947    0.0000 </r>
       <r>   68.0768    0.0000 </r>
       <r>   72.0690    0.0000 </r>
       <r>   72.2535    0.0000 </r>
       <r>   73.2582    0.0000 </r>
       <r>   76.4905    0.0000 </r>
       <r>   77.5775    0.0000 </r>
      </set>
      <set comment="kpoint 32">
       <r>   -1.6543    1.0000 </r>
       <r>   13.6008    0.0000 </r>
       <r>   14.9423    0.0000 </r>
       <r>   21.4460    0.0000 </r>
       <r>   22.0832    0.0000 </r>
       <r>   23.4592    0.0000 </r>
       <r>   23.5072    0.0000 </r>
       <r>   24.2877    0.0000 </r>
       <r>   26.2106    0.0000 </r>
       <r>   31.5015    0.0000 </r>
       <r>   32.1943    0.0000 </r>
       <r>   35.2577    0.0000 </r>
       <r>   38.7084    0.0000 </r>
       <r>   41.1204    0.0000 </r>
       <r>   46.4179    0.0000 </r>
       <r>   47.2995    0.0000 </r>
       <r>   53.3093    0.0000 </r>
       <r>   54.4307    0.0000 </r>
       <r>   55.1874    0.0000 </r>
       <r>   55.2724    0.0000 </r>
       <r>   57.4367    0.0000 </r>
       <r>   58.7386    0.0000 </r>
       <r>   59.6094    0.0000 </r>
       <r>   60.9399    0.0000 </r>
       <r>   67.0954    0.0000 </r>
       <r>   68.5818    0.0000 </r>
       <r>   70.7629    0.0000 </r>
       <r>   71.3539    0.0000 </r>
       <r>   73.7439    0.0000 </r>
       <r>   76.1337    0.0000 </r>
       <r>   76.2309    0.0000 </r>
       <r>   78.3967    0.0000 </r>
      </set>
      <set comment="kpoint 33">
       <r>   -1.4711    1.0000 </r>
       <r>   16.1367    0.0000 </r>
       <r>   16.1367    0.0000 </r>
       <r>   16.1684    0.0000 </r>
       <r>   18.0563    0.0000 </r>
       <r>   19.5889    0.0000 </r>
       <r>   28.8134    0.0000 </r>
       <r>   28.8134    0.0000 </r>
       <r>   28.9743    0.0000 </r>
       <r>   32.2971    0.0000 </r>
       <r>   33.5307    0.0000 </r>
       <r>   34.8305    0.0000 </r>
       <r>   34.8305    0.0000 </r>
       <r>   39.9401    0.0000 </r>
       <r>   48.7693    0.0000 </r>
       <r>   50.6133    0.0000 </r>
       <r>   50.6133    0.0000 </r>
       <r>   50.9000    0.0000 </r>
       <r>   54.3761    0.0000 </r>
       <r>   56.9509    0.0000 </r>
       <r>   56.9509    0.0000 </r>
       <r>   57.1963    0.0000 </r>
       <r>   60.4793    0.0000 </r>
       <r>   61.0491    0.0000 </r>
       <r>   66.5070    0.0000 </r>
       <r>   69.7607    0.0000 </r>
       <r>   69.7607    0.0000 </r>
       <r>   72.0642    0.0000 </r>
       <r>   72.0642    0.0000 </r>
       <r>   73.8591    0.0000 </r>
       <r>   77.7439    0.0000 </r>
       <r>   77.8191    0.0000 </r>
      </set>
      <set comment="kpoint 34">
       <r>   -0.7864    1.0000 </r>
       <r>   13.6469    0.0000 </r>
       <r>   15.6274    0.0000 </r>
       <r>   16.3423    0.0000 </r>
       <r>   16.8387    0.0000 </r>
       <r>   19.8432    0.0000 </r>
       <r>   28.3869    0.0000 </r>
       <r>   29.4351    0.0000 </r>
       <r>   30.6095    0.0000 </r>
       <r>   32.6909    0.0000 </r>
       <r>   34.6831    0.0000 </r>
       <r>   36.4738    0.0000 </r>
       <r>   37.6857    0.0000 </r>
       <r>   41.1929    0.0000 </r>
       <r>   47.0183    0.0000 </r>
       <r>   48.6683    0.0000 </r>
       <r>   51.1654    0.0000 </r>
       <r>   51.2862    0.0000 </r>
       <r>   54.1772    0.0000 </r>
       <r>   56.3432    0.0000 </r>
       <r>   56.9450    0.0000 </r>
       <r>   57.2413    0.0000 </r>
       <r>   60.2427    0.0000 </r>
       <r>   60.5921    0.0000 </r>
       <r>   65.0418    0.0000 </r>
       <r>   67.4300    0.0000 </r>
       <r>   67.5025    0.0000 </r>
       <r>   71.3554    0.0000 </r>
       <r>   72.0518    0.0000 </r>
       <r>   72.0635    0.0000 </r>
       <r>   77.7110    0.0000 </r>
       <r>   78.0495    0.0000 </r>
      </set>
      <set comment="kpoint 35">
       <r>    0.1664    1.0000 </r>
       <r>   11.1137   -0.0000 </r>
       <r>   14.9125    0.0000 </r>
       <r>   15.3553    0.0000 </r>
       <r>   16.9134    0.0000 </r>
       <r>   21.3255    0.0000 </r>
       <r>   27.3810    0.0000 </r>
       <r>   29.4723    0.0000 </r>
       <r>   31.6017    0.0000 </r>
       <r>   32.3265    0.0000 </r>
       <r>   37.2833    0.0000 </r>
       <r>   39.0315    0.0000 </r>
       <r>   41.5024    0.0000 </r>
       <r>   42.8078    0.0000 </r>
       <r>   43.8000    0.0000 </r>
       <r>   46.3415    0.0000 </r>
       <r>   51.9875    0.0000 </r>
       <r>   53.5147    0.0000 </r>
       <r>   54.2525    0.0000 </r>
       <r>   55.3360    0.0000 </r>
       <r>   56.3566    0.0000 </r>
       <r>   56.9689    0.0000 </r>
       <r>   59.7923    0.0000 </r>
       <r>   60.6544    0.0000 </r>
       <r>   62.5329    0.0000 </r>
       <r>   65.1701    0.0000 </r>
       <r>   65.7588    0.0000 </r>
       <r>   69.1944    0.0000 </r>
       <r>   71.2274    0.0000 </r>
       <r>   71.2445    0.0000 </r>
       <r>   76.1542    0.0000 </r>
       <r>   76.6354    0.0000 </r>
      </set>
      <set comment="kpoint 36">
       <r>    1.3815    1.0000 </r>
       <r>    8.7283   -0.0000 </r>
       <r>   13.7052    0.0000 </r>
       <r>   15.3201    0.0000 </r>
       <r>   16.9910    0.0000 </r>
       <r>   23.3220    0.0000 </r>
       <r>   26.3810    0.0000 </r>
       <r>   29.1909    0.0000 </r>
       <r>   30.9400    0.0000 </r>
       <r>   33.6009    0.0000 </r>
       <r>   39.7850    0.0000 </r>
       <r>   40.3448    0.0000 </r>
       <r>   42.4057    0.0000 </r>
       <r>   43.2178    0.0000 </r>
       <r>   45.5081    0.0000 </r>
       <r>   46.3798    0.0000 </r>
       <r>   52.7762    0.0000 </r>
       <r>   53.0970    0.0000 </r>
       <r>   54.0639    0.0000 </r>
       <r>   54.6576    0.0000 </r>
       <r>   56.3288    0.0000 </r>
       <r>   56.9911    0.0000 </r>
       <r>   59.1304    0.0000 </r>
       <r>   60.5119    0.0000 </r>
       <r>   61.3248    0.0000 </r>
       <r>   63.1361    0.0000 </r>
       <r>   64.1316    0.0000 </r>
       <r>   67.6792    0.0000 </r>
       <r>   68.5506    0.0000 </r>
       <r>   70.4372    0.0000 </r>
       <r>   73.3274    0.0000 </r>
       <r>   75.4474    0.0000 </r>
      </set>
      <set comment="kpoint 37">
       <r>    2.8502    1.0000 </r>
       <r>    6.5457    1.0000 </r>
       <r>   12.7433    0.0000 </r>
       <r>   15.5218    0.0000 </r>
       <r>   17.2616    0.0000 </r>
       <r>   25.4764    0.0000 </r>
       <r>   25.5342    0.0000 </r>
       <r>   28.6814    0.0000 </r>
       <r>   30.8592    0.0000 </r>
       <r>   33.2240    0.0000 </r>
       <r>   39.7014    0.0000 </r>
       <r>   40.3501    0.0000 </r>
       <r>   42.4943    0.0000 </r>
       <r>   46.3413    0.0000 </r>
       <r>   47.4744    0.0000 </r>
       <r>   49.1783    0.0000 </r>
       <r>   51.6598    0.0000 </r>
       <r>   52.5891    0.0000 </r>
       <r>   53.4881    0.0000 </r>
       <r>   54.6983    0.0000 </r>
       <r>   56.9336    0.0000 </r>
       <r>   57.3767    0.0000 </r>
       <r>   57.8098    0.0000 </r>
       <r>   59.4995    0.0000 </r>
       <r>   61.6341    0.0000 </r>
       <r>   61.6668    0.0000 </r>
       <r>   63.6124    0.0000 </r>
       <r>   64.9701    0.0000 </r>
       <r>   66.9748    0.0000 </r>
       <r>   68.6901    0.0000 </r>
       <r>   70.8888    0.0000 </r>
       <r>   75.5970    0.0000 </r>
      </set>
      <set comment="kpoint 38">
       <r>    4.4442    1.0000 </r>
       <r>    4.7072    1.0000 </r>
       <r>   12.0367    0.0000 </r>
       <r>   15.9608    0.0000 </r>
       <r>   17.7699    0.0000 </r>
       <r>   24.8879    0.0000 </r>
       <r>   27.0121    0.0000 </r>
       <r>   28.7890    0.0000 </r>
       <r>   31.0673    0.0000 </r>
       <r>   31.2275    0.0000 </r>
       <r>   37.5819    0.0000 </r>
       <r>   42.1110    0.0000 </r>
       <r>   43.5058    0.0000 </r>
       <r>   46.5466    0.0000 </r>
       <r>   49.7503    0.0000 </r>
       <r>   50.0746    0.0000 </r>
       <r>   50.8846    0.0000 </r>
       <r>   53.9623    0.0000 </r>
       <r>   54.2787    0.0000 </r>
       <r>   55.2142    0.0000 </r>
       <r>   55.9765    0.0000 </r>
       <r>   56.4989    0.0000 </r>
       <r>   57.9690    0.0000 </r>
       <r>   58.6975    0.0000 </r>
       <r>   61.1992    0.0000 </r>
       <r>   61.7161    0.0000 </r>
       <r>   61.7232    0.0000 </r>
       <r>   63.7592    0.0000 </r>
       <r>   65.9980    0.0000 </r>
       <r>   68.1862    0.0000 </r>
       <r>   71.1036    0.0000 </r>
       <r>   75.7162    0.0000 </r>
      </set>
      <set comment="kpoint 39">
       <r>    2.8540    1.0000 </r>
       <r>    6.5178    1.0000 </r>
       <r>   11.6000   -0.0000 </r>
       <r>   16.6372    0.0000 </r>
       <r>   18.5226    0.0000 </r>
       <r>   24.4567    0.0000 </r>
       <r>   26.9189    0.0000 </r>
       <r>   28.8411    0.0000 </r>
       <r>   30.0051    0.0000 </r>
       <r>   31.3915    0.0000 </r>
       <r>   36.4033    0.0000 </r>
       <r>   41.4461    0.0000 </r>
       <r>   44.6431    0.0000 </r>
       <r>   45.6451    0.0000 </r>
       <r>   49.0625    0.0000 </r>
       <r>   50.7423    0.0000 </r>
       <r>   51.4374    0.0000 </r>
       <r>   54.1156    0.0000 </r>
       <r>   55.0007    0.0000 </r>
       <r>   55.0952    0.0000 </r>
       <r>   55.5229    0.0000 </r>
       <r>   56.6850    0.0000 </r>
       <r>   58.9238    0.0000 </r>
       <r>   59.4487    0.0000 </r>
       <r>   59.5931    0.0000 </r>
       <r>   61.2083    0.0000 </r>
       <r>   62.2165    0.0000 </r>
       <r>   64.1905    0.0000 </r>
       <r>   65.6131    0.0000 </r>
       <r>   70.3079    0.0000 </r>
       <r>   72.7315    0.0000 </r>
       <r>   75.2791    0.0000 </r>
      </set>
      <set comment="kpoint 40">
       <r>    1.3829    1.0000 </r>
       <r>    8.6288   -0.0000 </r>
       <r>   11.4807   -0.0000 </r>
       <r>   17.5506    0.0000 </r>
       <r>   19.5111    0.0000 </r>
       <r>   24.2269    0.0000 </r>
       <r>   26.4854    0.0000 </r>
       <r>   26.5410    0.0000 </r>
       <r>   29.4668    0.0000 </r>
       <r>   32.4859    0.0000 </r>
       <r>   36.3001    0.0000 </r>
       <r>   39.4117    0.0000 </r>
       <r>   43.8997    0.0000 </r>
       <r>   45.6973    0.0000 </r>
       <r>   47.3106    0.0000 </r>
       <r>   49.9842    0.0000 </r>
       <r>   51.8407    0.0000 </r>
       <r>   53.7853    0.0000 </r>
       <r>   54.1087    0.0000 </r>
       <r>   54.9479    0.0000 </r>
       <r>   56.1765    0.0000 </r>
       <r>   57.5765    0.0000 </r>
       <r>   59.2621    0.0000 </r>
       <r>   59.7711    0.0000 </r>
       <r>   60.9212    0.0000 </r>
[...]
       </set>
       <set comment="band 19">
        <r>  6.3593  0.7904  0.0000  0.0348  0.0000  0.0000  0.0000  0.0000  0.0000 </r>
       </set>
       <set comment="band 20">
        <r>  2.6532  1.5300  0.0000  0.8067  0.0000  0.0000  0.0000  0.0000  0.0000 </r>
       </set>
       <set comment="band 21">
        <r>  0.4318  0.4136  0.0000  1.0028  0.0000  0.0000  0.0000  0.0000  0.0000 </r>
       </set>
       <set comment="band 22">
        <r>  0.0000  0.0000  1.8504  0.0000  0.0000  0.0000  0.0000  0.0000  0.0000 </r>
       </set>
       <set comment="band 23">
        <r>  0.0000  0.0000  0.0551  0.0000  0.0000  0.0000  0.0000  0.0000  0.0000 </r>
       </set>
       <set comment="band 24">
        <r>  0.0002  0.0117  0.0000  1.5894  0.0000  0.0000  0.0000  0.0000  0.0000 </r>
       </set>
       <set comment="band 25">
        <r>  0.0000  0.0000  1.7560  0.0000  0.0000  0.0000  0.0000  0.0000  0.0000 </r>
       </set>
       <set comment="band 26">
        <r>  0.2002  0.2355  0.0000  0.0992  0.0000  0.0000  0.0000  0.0000  0.0000 </r>
       </set>
       <set comment="band 27">
        <r>  0.4103  0.0003  0.0000  0.9275  0.0000  0.0000  0.0000  0.0000  0.0000 </r>
       </set>
       <set comment="band 28">
        <r>  0.0000  0.0000  0.8171  0.0000  0.0000  0.0000  0.0000  0.0000  0.0000 </r>
       </set>
       <set comment="band 29">
        <r>  0.0916  1.7181  0.0000  0.0647  0.0000  0.0000  0.0000  0.0000  0.0000 </r>
       </set>
       <set comment="band 30">
        <r>  0.0000  0.0000  0.1677  0.0000  0.0000  0.0000  0.0000  0.0000  0.0000 </r>
       </set>
       <set comment="band 31">
        <r>  0.0348  0.1276  0.0000  0.0027  0.0000  0.0000  0.0000  0.0000  0.0000 </r>
       </set>
       <set comment="band 32">
        <r>  0.0010  0.0001  0.0000  0.2432  0.0000  0.0000  0.0000  0.0000  0.0000 </r>
       </set>
      </set>
      <set comment="kpoint 101">
       <set comment="band 1">
        <r>  0.0000  0.0000  0.2374  0.0000  0.0000  0.0000  0.0000  0.0000  0.0000 </r>
       </set>
       <set comment="band 2">
        <r>  0.2179  0.0341  0.0000  0.0000  0.0000  0.0000  0.0000  0.0000  0.0000 </r>
       </set>
       <set comment="band 3">
        <r>  0.0000  0.0000  0.0000  0.1997  0.0000  0.0000  0.0000  0.0000  0.0000 </r>
       </set>
       <set comment="band 4">
        <r>  0.2236  0.1350  0.0000  0.0000  0.0000  0.0000  0.0000  0.0000  0.0000 </r>
       </set>
       <set comment="band 5">
        <r>  0.0000  0.0000  0.0000  0.1396  0.0000  0.0000  0.0000  0.0000  0.0000 </r>
       </set>
       <set comment="band 6">
        <r>  0.1322  0.1972  0.0000  0.0000  0.0000  0.0000  0.0000  0.0000  0.0000 </r>
       </set>
       <set comment="band 7">
        <r>  0.0000  0.0000  0.0683  0.0000  0.0000  0.0000  0.0000  0.0000  0.0000 </r>
       </set>
       <set comment="band 8">
        <r>  0.0232  0.1139  0.0000  0.0000  0.0000  0.0000  0.0000  0.0000  0.0000 </r>
       </set>
       <set comment="band 9">
        <r>  0.0000  0.0000  0.0000  0.0000  0.0000  0.0000  0.0000  0.0000  0.0000 </r>
       </set>
       <set comment="band 10">
        <r>  0.0223  0.0124  0.0000  0.0000  0.0000  0.0000  0.0000  0.0000  0.0000 </r>
       </set>
       <set comment="band 11">
        <r>  0.0000  0.0000  0.0000  0.2416  0.0000  0.0000  0.0000  0.0000  0.0000 </r>
       </set>
       <set comment="band 12">
        <r>  0.0000  0.0000  0.1138  0.0000  0.0000  0.0000  0.0000  0.0000  0.0000 </r>
       </set>
       <set comment="band 13">
        <r>  0.0000  0.0000  0.0076  0.0000  0.0000  0.0000  0.0000  0.0000  0.0000 </r>
       </set>
       <set comment="band 14">
        <r>  0.1265  0.0844  0.0000  0.0000  0.0000  0.0000  0.0000  0.0000  0.0000 </r>
       </set>
       <set comment="band 15">
        <r>  0.0000  0.0000  0.0000  0.0671  0.0000  0.0000  0.0000  0.0000  0.0000 </r>
       </set>
       <set comment="band 16">
        <r>  0.0000  0.0000  0.0000  0.0000  0.0000  0.0000  0.0000  0.0000  0.0000 </r>
       </set>
       <set comment="band 17">
        <r>  0.0000  0.0000  0.5753  0.0000  0.0000  0.0000  0.0000  0.0000  0.0000 </r>
       </set>
       <set comment="band 18">
        <r>  1.7898  0.0451  0.0000  0.0000  0.0000  0.0000  0.0000  0.0000  0.0000 </r>
       </set>
       <set comment="band 19">
        <r>  2.9002  0.9702  0.0000  0.0000  0.0000  0.0000  0.0000  0.0000  0.0000 </r>
       </set>
       <set comment="band 20">
        <r>  0.0000  0.0000  0.0000  0.0081  0.0000  0.0000  0.0000  0.0000  0.0000 </r>
       </set>
       <set comment="band 21">
        <r>  0.0000  0.0000  0.0000  0.0000  0.0000  0.0000  0.0000  0.0000  0.0000 </r>
       </set>
       <set comment="band 22">
        <r>  0.0000  0.0000  0.8895  0.0000  0.0000  0.0000  0.0000  0.0000  0.0000 </r>
       </set>
       <set comment="band 23">
        <r>  4.4861  2.1456  0.0000  0.0000  0.0000  0.0000  0.0000  0.0000  0.0000 </r>
       </set>
       <set comment="band 24">
        <r>  0.0000  0.0000  0.0000  3.7424  0.0000  0.0000  0.0000  0.0000  0.0000 </r>
       </set>
       <set comment="band 25">
        <r>  0.0000  0.0000  3.7097  0.0000  0.0000  0.0000  0.0000  0.0000  0.0000 </r>
       </set>
       <set comment="band 26">
        <r>  1.2494  1.7717  0.0000  0.0000  0.0000  0.0000  0.0000  0.0000  0.0000 </r>
       </set>
       <set comment="band 27">
        <r>  0.0000  0.0000  0.0000  1.2839  0.0000  0.0000  0.0000  0.0000  0.0000 </r>
       </set>
       <set comment="band 28">
        <r>  0.0000  0.0000  0.0000  0.0000  0.0000  0.0000  0.0000  0.0000  0.0000 </r>
       </set>
       <set comment="band 29">
        <r>  0.0000  0.0000  0.2644  0.0000  0.0000  0.0000  0.0000  0.0000  0.0000 </r>
       </set>
       <set comment="band 30">
        <r>  0.0743  0.0988  0.0000  0.0000  0.0000  0.0000  0.0000  0.0000  0.0000 </r>
       </set>
       <set comment="band 31">
        <r>  0.0000  0.0000  0.0000  0.0089  0.0000  0.0000  0.0000  0.0000  0.0000 </r>
       </set>
       <set comment="band 32">
        <r>  0.3537  0.0103  0.0000  0.0000  0.0000  0.0000  0.0000  0.0000  0.0000 </r>
       </set>
      </set>
      <set comment="kpoint 102">
       <set comment="band 1">
        <r>  0.1007  0.0242  0.1237  0.0000  0.0000  0.0000  0.0000  0.0000  0.0000 </r>
       </set>
       <set comment="band 2">
        <r>  0.0000  0.0000  0.0000  0.2142  0.0000  0.0000  0.0000  0.0000  0.0000 </r>
       </set>
       <set comment="band 3">
        <r>  0.0703  0.1144  0.0099  0.0000  0.0000  0.0000  0.0000  0.0000  0.0000 </r>
       </set>
       <set comment="band 4">
        <r>  0.2943  0.0005  0.0990  0.0000  0.0000  0.0000  0.0000  0.0000  0.0000 </r>
       </set>
       <set comment="band 5">
        <r>  0.0000  0.0000  0.0000  0.1145  0.0000  0.0000  0.0000  0.0000  0.0000 </r>
       </set>
       <set comment="band 6">
        <r>  0.0108  0.3138  0.0292  0.0000  0.0000  0.0000  0.0000  0.0000  0.0000 </r>
       </set>
       <set comment="band 7">
        <r>  0.0803  0.0038  0.0185  0.0000  0.0000  0.0000  0.0000  0.0000  0.0000 </r>
       </set>
       <set comment="band 8">
        <r>  0.0266  0.0539  0.0590  0.0000  0.0000  0.0000  0.0000  0.0000  0.0000 </r>
       </set>
       <set comment="band 9">
        <r>  0.0000  0.0000  0.0000  0.0478  0.0000  0.0000  0.0000  0.0000  0.0000 </r>
       </set>
       <set comment="band 10">
        <r>  0.0019  0.0030  0.0189  0.0000  0.0000  0.0000  0.0000  0.0000  0.0000 </r>
       </set>
       <set comment="band 11">
        <r>  0.0000  0.0000  0.0000  0.0126  0.0000  0.0000  0.0000  0.0000  0.0000 </r>
       </set>
       <set comment="band 12">
        <r>  0.0965  0.0102  0.0701  0.0000  0.0000  0.0000  0.0000  0.0000  0.0000 </r>
       </set>
       <set comment="band 13">
        <r>  0.0000  0.0000  0.0000  0.2001  0.0000  0.0000  0.0000  0.0000  0.0000 </r>
       </set>
       <set comment="band 14">
        <r>  0.0124  0.0060  0.0731  0.0000  0.0000  0.0000  0.0000  0.0000  0.0000 </r>
       </set>
       <set comment="band 15">
        <r>  0.1385  0.0000  0.0460  0.0000  0.0000  0.0000  0.0000  0.0000  0.0000 </r>
       </set>
       <set comment="band 16">
        <r>  0.0000  0.0000  0.0000  0.0337  0.0000  0.0000  0.0000  0.0000  0.0000 </r>
       </set>
       <set comment="band 17">
        <r>  0.2870  0.1159  0.5714  0.0000  0.0000  0.0000  0.0000  0.0000  0.0000 </r>
       </set>
       <set comment="band 18">
        <r>  0.0000  0.0000  0.0000  0.1242  0.0000  0.0000  0.0000  0.0000  0.0000 </r>
       </set>
       <set comment="band 19">
        <r>  3.0887  1.4229  0.3389  0.0000  0.0000  0.0000  0.0000  0.0000  0.0000 </r>
       </set>
       <set comment="band 20">
        <r>  3.3019  1.2637  0.0020  0.0000  0.0000  0.0000  0.0000  0.0000  0.0000 </r>
       </set>
       <set comment="band 21">
        <r>  0.0000  0.0000  0.0000  2.0056  0.0000  0.0000  0.0000  0.0000  0.0000 </r>
       </set>
       <set comment="band 22">
        <r>  3.0471  0.1381  0.0046  0.0000  0.0000  0.0000  0.0000  0.0000  0.0000 </r>
       </set>
       <set comment="band 23">
        <r>  0.0808  0.2317  3.3808  0.0000  0.0000  0.0000  0.0000  0.0000  0.0000 </r>
       </set>
       <set comment="band 24">
        <r>  0.0000  0.0000  0.0000  2.5458  0.0000  0.0000  0.0000  0.0000  0.0000 </r>
       </set>
       <set comment="band 25">
        <r>  0.0164  0.4893  0.4489  0.0000  0.0000  0.0000  0.0000  0.0000  0.0000 </r>
       </set>
       <set comment="band 26">
        <r>  0.0000  0.0000  0.0000  0.0118  0.0000  0.0000  0.0000  0.0000  0.0000 </r>
       </set>
       <set comment="band 27">
        <r>  0.0000  0.2089  0.0002  0.0000  0.0000  0.0000  0.0000  0.0000  0.0000 </r>
       </set>
       <set comment="band 28">
        <r>  0.4381  0.1490  0.2008  0.0000  0.0000  0.0000  0.0000  0.0000  0.0000 </r>
       </set>
       <set comment="band 29">
        <r>  0.0000  0.0000  0.0000  0.3161  0.0000  0.0000  0.0000  0.0000  0.0000 </r>
       </set>
       <set comment="band 30">
        <r>  0.0228  1.2840  0.0018  0.0000  0.0000  0.0000  0.0000  0.0000  0.0000 </r>
       </set>
       <set comment="band 31">
        <r>  0.0000  0.0000  0.0000  0.1864  0.0000  0.0000  0.0000  0.0000  0.0000 </r>
       </set>
       <set comment="band 32">
        <r>  0.0060  0.0110  0.4709  0.0000  0.0000  0.0000  0.0000  0.0000  0.0000 </r>
       </set>
      </set>
      <set comment="kpoint 103">
       <set comment="band 1">
        <r>  0.0000  0.0435  0.0796  0.0796  0.0000  0.0000  0.0000  0.0000  0.0000 </r>
       </set>
       <set comment="band 2">
        <r>  0.1115  0.0000  0.0781  0.0781  0.0000  0.0000  0.0000  0.0000  0.0000 </r>
       </set>
       <set comment="band 3">
        <r>  0.0000  0.0926  0.0314  0.0314  0.0000  0.0000  0.0000  0.0000  0.0000 </r>
       </set>
       <set comment="band 4">
        <r>  0.3599  0.0000  0.0342  0.0342  0.0000  0.0000  0.0000  0.0000  0.0000 </r>
       </set>
       <set comment="band 5">
        <r>  0.0000  0.1618  0.0354  0.0354  0.0000  0.0000  0.0000  0.0000  0.0000 </r>
       </set>
       <set comment="band 6">
        <r>  0.0270  0.0000  0.0370  0.0370  0.0000  0.0000  0.0000  0.0000  0.0000 </r>
       </set>
       <set comment="band 7">
        <r>  0.0000  0.2212  0.0171  0.0171  0.0000  0.0000  0.0000  0.0000  0.0000 </r>
       </set>
       <set comment="band 8">
        <r>  0.0906  0.0000  0.0187  0.0187  0.0000  0.0000  0.0000  0.0000  0.0000 </r>
       </set>
       <set comment="band 9">
        <r>  0.0014  0.0000  0.0136  0.0136  0.0000  0.0000  0.0000  0.0000  0.0000 </r>
       </set>
       <set comment="band 10">
        <r>  0.0000  0.0013  0.0075  0.0075  0.0000  0.0000  0.0000  0.0000  0.0000 </r>
       </set>
       <set comment="band 11">
        <r>  0.0837  0.0000  0.0451  0.0451  0.0000  0.0000  0.0000  0.0000  0.0000 </r>
       </set>
       <set comment="band 12">
        <r>  0.0000  0.0000  0.0468  0.0468  0.0000  0.0000  0.0000  0.0000  0.0000 </r>
       </set>
       <set comment="band 13">
        <r>  0.0000  0.0014  0.0604  0.0604  0.0000  0.0000  0.0000  0.0000  0.0000 </r>
       </set>
       <set comment="band 14">
        <r>  0.0172  0.0000  0.0068  0.0068  0.0000  0.0000  0.0000  0.0000  0.0000 </r>
       </set>
       <set comment="band 15">
        <r>  0.1360  0.0000  0.0602  0.0602  0.0000  0.0000  0.0000  0.0000  0.0000 </r>
       </set>
       <set comment="band 16">
        <r>  0.0000  0.0018  0.0083  0.0083  0.0000  0.0000  0.0000  0.0000  0.0000 </r>
       </set>
       <set comment="band 17">
        <r>  0.0000  0.1793  0.3058  0.3058  0.0000  0.0000  0.0000  0.0000  0.0000 </r>
       </set>
       <set comment="band 18">
        <r>  0.3475  0.0000  0.4243  0.4243  0.0000  0.0000  0.0000  0.0000  0.0000 </r>
       </set>
       <set comment="band 19">
        <r>  0.0000  2.7002  0.0986  0.0986  0.0000  0.0000  0.0000  0.0000  0.0000 </r>
       </set>
       <set comment="band 20">
        <r>  9.2180  0.0000  0.0532  0.0532  0.0000  0.0000  0.0000  0.0000  0.0000 </r>
       </set>
       <set comment="band 21">
        <r>  0.0587  0.0000  0.7685  0.7685  0.0000  0.0000  0.0000  0.0000  0.0000 </r>
       </set>
       <set comment="band 22">
        <r>  0.0000  0.0855  1.2025  1.2025  0.0000  0.0000  0.0000  0.0000  0.0000 </r>
       </set>
       <set comment="band 23">
        <r>  0.0000  0.3559  0.1032  0.1032  0.0000  0.0000  0.0000  0.0000  0.0000 </r>
       </set>
       <set comment="band 24">
        <r>  0.2777  0.0000  0.0550  0.0550  0.0000  0.0000  0.0000  0.0000  0.0000 </r>
       </set>
       <set comment="band 25">
        <r>  0.0601  0.0000  1.0420  1.0420  0.0000  0.0000  0.0000  0.0000  0.0000 </r>
       </set>
       <set comment="band 26">
        <r>  0.0000  0.0737  0.5242  0.5242  0.0000  0.0000  0.0000  0.0000  0.0000 </r>
       </set>
       <set comment="band 27">
        <r>  0.0063  0.0000  0.0594  0.0594  0.0000  0.0000  0.0000  0.0000  0.0000 </r>
       </set>
       <set comment="band 28">
        <r>  0.0000  0.2883  0.0182  0.0182  0.0000  0.0000  0.0000  0.0000  0.0000 </r>
       </set>
       <set comment="band 29">
        <r>  0.0000  0.6475  0.2271  0.2271  0.0000  0.0000  0.0000  0.0000  0.0000 </r>
       </set>
       <set comment="band 30">
        <r>  0.0000  1.0425  0.1303  0.1303  0.0000  0.0000  0.0000  0.0000  0.0000 </r>
       </set>
       <set comment="band 31">
        <r>  0.1790  0.0000  0.1669  0.1669  0.0000  0.0000  0.0000  0.0000  0.0000 </r>
       </set>
       <set comment="band 32">
        <r>  0.4708  0.0000  0.0913  0.0914  0.0000  0.0000  0.0000  0.0000  0.0000 </r>
       </set>
      </set>
      <set comment="kpoint 104">
       <set comment="band 1">
        <r>  0.0000  0.0000  0.2283  0.0000  0.0000  0.0000  0.0000  0.0000  0.0000 </r>
       </set>
       <set comment="band 2">
        <r>  0.0000  0.0000  0.0000  0.2158  0.0000  0.0000  0.0000  0.0000  0.0000 </r>
       </set>
       <set comment="band 3">
        <r>  0.1060  0.0931  0.0000  0.0000  0.0000  0.0000  0.0000  0.0000  0.0000 </r>
       </set>
       <set comment="band 4">
        <r>  0.3653  0.0464  0.0000  0.0000  0.0000  0.0000  0.0000  0.0000  0.0000 </r>
       </set>
       <set comment="band 5">
        <r>  0.0000  0.0000  0.0000  0.1170  0.0000  0.0000  0.0000  0.0000  0.0000 </r>
       </set>
       <set comment="band 6">
        <r>  0.0478  0.2948  0.0000  0.0000  0.0000  0.0000  0.0000  0.0000  0.0000 </r>
       </set>
       <set comment="band 7">
        <r>  0.0000  0.0000  0.0940  0.0000  0.0000  0.0000  0.0000  0.0000  0.0000 </r>
       </set>
       <set comment="band 8">
        <r>  0.0772  0.0829  0.0000  0.0000  0.0000  0.0000  0.0000  0.0000  0.0000 </r>
       </set>
       <set comment="band 9">
        <r>  0.0000  0.0000  0.0000  0.0000  0.0000  0.0000  0.0000  0.0000  0.0000 </r>
       </set>
       <set comment="band 10">
        <r>  0.0038  0.0000  0.0000  0.0000  0.0000  0.0000  0.0000  0.0000  0.0000 </r>
       </set>
       <set comment="band 11">
        <r>  0.0000  0.0000  0.0000  0.2001  0.0000  0.0000  0.0000  0.0000  0.0000 </r>
       </set>
       <set comment="band 12">
        <r>  0.0000  0.0000  0.2007  0.0000  0.0000  0.0000  0.0000  0.0000  0.0000 </r>
       </set>
       <set comment="band 13">
        <r>  0.0000  0.0000  0.0041  0.0000  0.0000  0.0000  0.0000  0.0000  0.0000 </r>
       </set>
       <set comment="band 14">
        <r>  0.0000  0.0000  0.0000  0.0687  0.0000  0.0000  0.0000  0.0000  0.0000 </r>
       </set>
       <set comment="band 15">
        <r>  0.2235  0.0110  0.0000  0.0000  0.0000  0.0000  0.0000  0.0000  0.0000 </r>
       </set>
       <set comment="band 16">
        <r>  0.0000  0.0000  0.0000  0.0000  0.0000  0.0000  0.0000  0.0000  0.0000 </r>
       </set>
       <set comment="band 17">
        <r>  0.0000  0.0000  0.8036  0.0000  0.0000  0.0000  0.0000  0.0000  0.0000 </r>
       </set>
       <set comment="band 18">
        <r>  0.0000  0.0000  0.0000  0.9891  0.0000  0.0000  0.0000  0.0000  0.0000 </r>
       </set>
       <set comment="band 19">
        <r>  2.1472  2.0664  0.0000  0.0000  0.0000  0.0000  0.0000  0.0000  0.0000 </r>
       </set>
       <set comment="band 20">
        <r>  7.1113  0.7040  0.0000  0.0000  0.0000  0.0000  0.0000  0.0000  0.0000 </r>
       </set>
       <set comment="band 21">
        <r>  0.0000  0.0000  0.0000  2.6420  0.0000  0.0000  0.0000  0.0000  0.0000 </r>
       </set>
       <set comment="band 22">
        <r>  0.5298  0.2553  0.0000  0.0000  0.0000  0.0000  0.0000  0.0000  0.0000 </r>
       </set>
       <set comment="band 23">
        <r>  0.0000  0.0000  3.5584  0.0000  0.0000  0.0000  0.0000  0.0000  0.0000 </r>
       </set>
       <set comment="band 24">
        <r>  0.0000  0.0000  0.0000  0.0000  0.0000  0.0000  0.0000  0.0000  0.0000 </r>
       </set>
       <set comment="band 25">
        <r>  0.0000  0.0000  0.1146  0.0000  0.0000  0.0000  0.0000  0.0000  0.0000 </r>
       </set>
       <set comment="band 26">
        <r>  0.2205  0.7575  0.0000  0.0000  0.0000  0.0000  0.0000  0.0000  0.0000 </r>
       </set>
       <set comment="band 27">
        <r>  0.0000  0.0000  0.0000  0.0000  0.0000  0.0000  0.0000  0.0000  0.0000 </r>
       </set>
       <set comment="band 28">
        <r>  0.0000  0.0000  0.0000  1.4140  0.0000  0.0000  0.0000  0.0000  0.0000 </r>
       </set>
       <set comment="band 29">
        <r>  0.0000  0.0000  0.8606  0.0000  0.0000  0.0000  0.0000  0.0000  0.0000 </r>
       </set>
       <set comment="band 30">
        <r>  0.0696  1.5421  0.0000  0.0000  0.0000  0.0000  0.0000  0.0000  0.0000 </r>
       </set>
       <set comment="band 31">
        <r>  0.0000  0.0000  0.0000  0.1692  0.0000  0.0000  0.0000  0.0000  0.0000 </r>
       </set>
       <set comment="band 32">
        <r>  0.7115  0.0033  0.0000  0.0000  0.0000  0.0000  0.0000  0.0000  0.0000 </r>
       </set>
      </set>
     </set>
    </set>
   </array>
  </projected>
 </calculation>
 <structure name="finalpos" >
  <crystal>
   <varray name="basis" >
    <v>       0.00000000       2.01946500       2.01946500 </v>
    <v>       2.01946500       0.00000000       2.01946500 </v>
    <v>       2.01946500       2.01946500       0.00000000 </v>
   </varray>
   <i name="volume">     16.47172138 </i>
   <varray name="rec_basis" >
    <v>      -0.24759033       0.24759033       0.24759033 </v>
    <v>       0.24759033      -0.24759033       0.24759033 </v>
    <v>       0.24759033       0.24759033      -0.24759033 </v>
   </varray>
  </crystal>
  <varray name="positions" >
   <v>       0.00000000       0.00000000       0.00000000 </v>
  </varray>
 </structure>
</modeling>
