<?xml version="1.0" encoding="ISO-8859-1"?>
<modeling>
 <generator>
  <i name="program" type="string">vasp </i>
  <i name="version" type="string">6.4.3  </i>
  <i name="subversion" type="string">19Mar24 (build Oct 16 2024 18:29:25) complex                          parallel </i>
  <i name="platform" type="string">LinuxIFC </i>
  <i name="date" type="string">2025 08 12 </i>
  <i name="time" type="string">18:27:40 </i>
 </generator>
 <incar>
  <i type="string" name="PREC">Accurate</i>
  <i type="string" name="ALGO">Fast</i>
  <i type="int" name="ISPIN">     2</i>
  <i type="int" name="NELM">   100</i>
  <i type="int" name="IBRION">     2</i>
  <i name="EDIFF">      0.00040000</i>
  <i type="int" name="NSW">    99</i>
  <i type="int" name="ISIF">     3</i>
  <i name="ENCUT">    520.00000000</i>
  <v name="MAGMOM">      5.00000000      5.00000000      0.60000000      0.60000000      0.60000000      0.60000000      0.60000000      0.60000000</v>
  <i type="string" name="LREAL">Auto</i>
  <i type="int" name="ISMEAR">    -5</i>
  <i name="SIGMA">      0.05000000</i>
  <i type="int" name="LMAXMIX">     4</i>
  <i type="logical" name="LWAVE"> F  </i>
  <i type="int" name="LORBIT">    11</i>
  <i type="logical" name="LASPH"> T  </i>
 </incar>
 <primitive_cell>
  <structure name="primitive_cell" >
   <crystal>
    <varray name="basis" >
     <v>      -5.24797400      -3.03045300       0.00000000 </v>
     <v>       5.24797400      -3.03045300       0.00000000 </v>
     <v>       0.00000000       1.96590000       6.28025000 </v>
    </varray>
    <i name="volume">    199.75890809 </i>
    <varray name="rec_basis" >
     <v>      -0.09527486      -0.16499183       0.05164722 </v>
     <v>       0.09527486      -0.16499183       0.05164722 </v>
     <v>       0.00000000       0.00000000       0.15922933 </v>
    </varray>
   </crystal>
   <varray name="positions" >
    <v>       0.83331900       0.16668100       0.00000000 </v>
    <v>       0.16668100       0.83331900       0.00000000 </v>
    <v>       0.43115000       0.07168100       0.78755800 </v>
    <v>       0.92831900       0.56885000       0.21244200 </v>
    <v>       0.79087800       0.79087800       0.78687400 </v>
    <v>       0.20912200       0.20912200       0.21312600 </v>
    <v>       0.07168100       0.43115000       0.78755800 </v>
    <v>       0.56885000       0.92831900       0.21244200 </v>
   </varray>
  </structure>
  <varray name="primitive_index" >
   <v type="int" >        1 </v>
   <v type="int" >        2 </v>
   <v type="int" >        3 </v>
   <v type="int" >        4 </v>
   <v type="int" >        5 </v>
   <v type="int" >        6 </v>
   <v type="int" >        7 </v>
   <v type="int" >        8 </v>
  </varray>
 </primitive_cell>
 <kpoints>
  <generation param="Monkhorst-Pack">
   <v type="int" name="divisions">       4        4        4 </v>
   <v name="usershift">      0.00000000       0.00000000       0.00000000 </v>
   <v name="genvec1">      0.25000000       0.00000000      -0.00000000 </v>
   <v name="genvec2">      0.00000000       0.25000000      -0.00000000 </v>
   <v name="genvec3">      0.00000000       0.00000000       0.25000000 </v>
   <v name="shift">      0.50000000       0.50000000       0.50000000 </v>
  </generation>
  <varray name="kpointlist" >
   <v>       0.12500000       0.12500000       0.12500000 </v>
   <v>       0.37500000       0.12500000       0.12500000 </v>
   <v>      -0.37500000       0.12500000       0.12500000 </v>
   <v>      -0.12500000       0.12500000       0.12500000 </v>
   <v>       0.37500000       0.37500000       0.12500000 </v>
   <v>      -0.37500000       0.37500000       0.12500000 </v>
   <v>      -0.12500000       0.37500000       0.12500000 </v>
   <v>      -0.37500000      -0.37500000       0.12500000 </v>
   <v>      -0.12500000      -0.37500000       0.12500000 </v>
   <v>      -0.12500000      -0.12500000       0.12500000 </v>
   <v>       0.12500000       0.12500000       0.37500000 </v>
   <v>       0.37500000       0.12500000       0.37500000 </v>
   <v>      -0.37500000       0.12500000       0.37500000 </v>
   <v>      -0.12500000       0.12500000       0.37500000 </v>
   <v>       0.37500000       0.37500000       0.37500000 </v>
   <v>      -0.37500000       0.37500000       0.37500000 </v>
   <v>      -0.12500000       0.37500000       0.37500000 </v>
   <v>      -0.37500000      -0.37500000       0.37500000 </v>
   <v>      -0.12500000      -0.37500000       0.37500000 </v>
   <v>      -0.12500000      -0.12500000       0.37500000 </v>
  </varray>
  <varray name="weights" >
   <v>       0.03125000 </v>
   <v>       0.06250000 </v>
   <v>       0.06250000 </v>
   <v>       0.06250000 </v>
   <v>       0.03125000 </v>
   <v>       0.06250000 </v>
   <v>       0.06250000 </v>
   <v>       0.03125000 </v>
   <v>       0.06250000 </v>
   <v>       0.03125000 </v>
   <v>       0.03125000 </v>
   <v>       0.06250000 </v>
   <v>       0.06250000 </v>
   <v>       0.06250000 </v>
   <v>       0.03125000 </v>
   <v>       0.06250000 </v>
   <v>       0.06250000 </v>
   <v>       0.03125000 </v>
   <v>       0.06250000 </v>
   <v>       0.03125000 </v>
  </varray>
  <varray name="tetrahedronlist"  type="int" >
   <v type="int" >        2       15       16       16       16 </v>
   <v type="int" >        2       16       16       16       18 </v>
   <v type="int" >        2       15       16       16       18 </v>
   <v type="int" >        2       13       16       17       18 </v>
   <v type="int" >        2       13       17       18       19 </v>
   <v type="int" >        2       12       13       18       19 </v>
   <v type="int" >        2       13       16       16       18 </v>
   <v type="int" >        2       13       15       16       18 </v>
   <v type="int" >        2       12       13       15       18 </v>
   <v type="int" >        2       12       17       19       19 </v>
   <v type="int" >        2       12       13       19       19 </v>
   <v type="int" >        2       13       17       19       19 </v>
   <v type="int" >        2       15       16       17       18 </v>
   <v type="int" >        2       15       17       18       19 </v>
   <v type="int" >        2       12       15       17       19 </v>
   <v type="int" >        2       15       16       16       17 </v>
   <v type="int" >        2       13       15       16       17 </v>
   <v type="int" >        2       12       13       15       17 </v>
   <v type="int" >        2       12       18       19       19 </v>
   <v type="int" >        2       12       19       19       20 </v>
   <v type="int" >        2       11       12       19       20 </v>
   <v type="int" >        2       12       15       18       19 </v>
   <v type="int" >        2       12       12       15       19 </v>
   <v type="int" >        2       11       12       12       19 </v>
   <v type="int" >        2       13       17       19       20 </v>
   <v type="int" >        2       13       14       17       20 </v>
   <v type="int" >        2       14       14       17       20 </v>
   <v type="int" >        2       12       17       19       20 </v>
   <v type="int" >        2       11       12       17       20 </v>
   <v type="int" >        2       11       14       17       20 </v>
   <v type="int" >        2       13       14       16       16 </v>
   <v type="int" >        2       14       16       16       17 </v>
   <v type="int" >        4       13       14       16       17 </v>
   <v type="int" >        2       14       14       16       17 </v>
   <v type="int" >        2       13       14       14       16 </v>
   <v type="int" >        2       12       12       17       19 </v>
   <v type="int" >        2       12       12       13       19 </v>
   <v type="int" >        2       12       12       13       17 </v>
   <v type="int" >        2       11       13       19       20 </v>
   <v type="int" >        2       11       13       14       20 </v>
   <v type="int" >        2       11       13       14       14 </v>
   <v type="int" >        2       11       12       13       19 </v>
   <v type="int" >        2       11       12       13       17 </v>
   <v type="int" >        2       11       13       14       17 </v>
   <v type="int" >        2       14       14       14       20 </v>
   <v type="int" >        2       11       14       14       14 </v>
   <v type="int" >        2       11       14       14       20 </v>
   <v type="int" >        2        6       16       16       18 </v>
   <v type="int" >        2        6       15       16       16 </v>
   <v type="int" >        2        5        6       15       16 </v>
   <v type="int" >        2        6        8       16       18 </v>
   <v type="int" >        2        6        6        8       16 </v>
   <v type="int" >        2        5        6        6       16 </v>
   <v type="int" >        2        3       13       15       16 </v>
   <v type="int" >        2        3       12       13       15 </v>
   <v type="int" >        2        2        3       12       15 </v>
   <v type="int" >        2        3        6       15       16 </v>
   <v type="int" >        2        3        5        6       15 </v>
   <v type="int" >        2        2        3        5       15 </v>
   <v type="int" >        2        9       12       13       19 </v>
   <v type="int" >        2        9       12       17       19 </v>
   <v type="int" >        2        7        9       12       17 </v>
   <v type="int" >        2        3        9       12       13 </v>
   <v type="int" >        2        2        3        9       12 </v>
   <v type="int" >        2        2        7        9       12 </v>
   <v type="int" >        2        8       17       18       19 </v>
   <v type="int" >        2        8       16       17       18 </v>
   <v type="int" >        2        6        8       16       17 </v>
   <v type="int" >        2        8        9       17       19 </v>
   <v type="int" >        2        7        8        9       17 </v>
   <v type="int" >        2        6        7        8       17 </v>
   <v type="int" >        2        5       13       15       16 </v>
   <v type="int" >        2        5       12       13       15 </v>
   <v type="int" >        2        2        5       12       13 </v>
   <v type="int" >        2        5        6       13       16 </v>
   <v type="int" >        2        3        5        6       13 </v>
   <v type="int" >        2        2        3        5       13 </v>
   <v type="int" >        2        2       12       12       15 </v>
   <v type="int" >        2        2       11       12       12 </v>
   <v type="int" >        2        1        2       11       12 </v>
   <v type="int" >        2        2        5       12       15 </v>
   <v type="int" >        2        2        2        5       12 </v>
   <v type="int" >        2        1        2        2       12 </v>
   <v type="int" >        2        7       11       12       17 </v>
   <v type="int" >        2        7       11       14       17 </v>
   <v type="int" >        2        4        7       11       14 </v>
   <v type="int" >        2        2        7       11       12 </v>
   <v type="int" >        2        1        2        7       11 </v>
   <v type="int" >        2        1        4        7       11 </v>
   <v type="int" >        2        6       14       16       17 </v>
   <v type="int" >        2        6       13       14       16 </v>
   <v type="int" >        2        3        6       13       14 </v>
   <v type="int" >        2        6        7       14       17 </v>
   <v type="int" >        2        4        6        7       14 </v>
   <v type="int" >        2        3        4        6       14 </v>
   <v type="int" >        2        2       12       13       19 </v>
   <v type="int" >        2        2       12       17       19 </v>
   <v type="int" >        2        2        7       17       19 </v>
   <v type="int" >        2        2        3       13       19 </v>
   <v type="int" >        2        2        3        9       19 </v>
   <v type="int" >        2        2        7        9       19 </v>
   <v type="int" >        2        1       11       12       17 </v>
   <v type="int" >        2        1       11       14       17 </v>
   <v type="int" >        2        1        4       14       17 </v>
   <v type="int" >        2        1        2       12       17 </v>
   <v type="int" >        2        1        2        7       17 </v>
   <v type="int" >        2        1        4        7       17 </v>
   <v type="int" >        2        4       11       14       14 </v>
   <v type="int" >        2        4       14       14       20 </v>
   <v type="int" >        2        4       10       14       20 </v>
   <v type="int" >        2        1        4       11       14 </v>
   <v type="int" >        2        1        4        4       14 </v>
   <v type="int" >        2        4        4       10       14 </v>
   <v type="int" >        2        3       13       14       20 </v>
   <v type="int" >        2        3       13       19       20 </v>
   <v type="int" >        2        3        9       19       20 </v>
   <v type="int" >        2        3        4       14       20 </v>
   <v type="int" >        2        3        4       10       20 </v>
   <v type="int" >        2        3        9       10       20 </v>
   <v type="int" >        2        7       17       18       19 </v>
   <v type="int" >        2        7       16       17       18 </v>
   <v type="int" >        2        6        7       16       18 </v>
   <v type="int" >        2        7        9       18       19 </v>
   <v type="int" >        2        7        8        9       18 </v>
   <v type="int" >        2        6        7        8       18 </v>
   <v type="int" >        2        4       14       16       17 </v>
   <v type="int" >        2        4       13       14       16 </v>
   <v type="int" >        2        3        4       13       16 </v>
   <v type="int" >        2        4        7       16       17 </v>
   <v type="int" >        2        4        6        7       16 </v>
   <v type="int" >        2        3        4        6       16 </v>
   <v type="int" >        2       10       13       14       20 </v>
   <v type="int" >        2       10       13       19       20 </v>
   <v type="int" >        2        9       10       13       19 </v>
   <v type="int" >        2        4       10       13       14 </v>
   <v type="int" >        2        3        4       10       13 </v>
   <v type="int" >        2        3        9       10       13 </v>
   <v type="int" >        2        9       19       19       20 </v>
   <v type="int" >        2        9       18       19       19 </v>
   <v type="int" >        2        8        9       18       19 </v>
   <v type="int" >        2        9       10       19       20 </v>
   <v type="int" >        2        9        9       10       19 </v>
   <v type="int" >        2        8        9        9       19 </v>
   <v type="int" >        2        6        6        6        8 </v>
   <v type="int" >        2        5        6        6        6 </v>
   <v type="int" >        2        5        6        6        8 </v>
   <v type="int" >        2        3        5        6        7 </v>
   <v type="int" >        2        2        3        5        7 </v>
   <v type="int" >        2        2        5        7        9 </v>
   <v type="int" >        2        5        6        6        7 </v>
   <v type="int" >        2        5        6        7        8 </v>
   <v type="int" >        2        5        7        8        9 </v>
   <v type="int" >        2        2        2        3        9 </v>
   <v type="int" >        2        2        2        7        9 </v>
   <v type="int" >        2        2        2        3        7 </v>
   <v type="int" >        2        3        5        6        8 </v>
   <v type="int" >        2        2        3        5        8 </v>
   <v type="int" >        2        2        3        8        9 </v>
   <v type="int" >        2        3        6        6        8 </v>
   <v type="int" >        2        3        6        7        8 </v>
   <v type="int" >        2        3        7        8        9 </v>
   <v type="int" >        2        2        2        5        9 </v>
   <v type="int" >        2        1        2        2        9 </v>
   <v type="int" >        2        1        2        9       10 </v>
   <v type="int" >        2        2        5        8        9 </v>
   <v type="int" >        2        2        8        9        9 </v>
   <v type="int" >        2        2        9        9       10 </v>
   <v type="int" >        2        1        2        3        7 </v>
   <v type="int" >        2        1        3        4        7 </v>
   <v type="int" >        2        1        3        4        4 </v>
   <v type="int" >        2        1        2        3        9 </v>
   <v type="int" >        2        1        3        9       10 </v>
   <v type="int" >        2        1        3        4       10 </v>
   <v type="int" >        2        4        6        6        7 </v>
   <v type="int" >        2        3        4        6        6 </v>
   <v type="int" >        4        3        4        6        7 </v>
   <v type="int" >        2        3        4        4        6 </v>
   <v type="int" >        2        4        4        6        7 </v>
   <v type="int" >        2        2        3        9        9 </v>
   <v type="int" >        2        2        7        9        9 </v>
   <v type="int" >        2        3        7        9        9 </v>
   <v type="int" >        2        1        2        7       10 </v>
   <v type="int" >        2        1        4        7       10 </v>
   <v type="int" >        2        4        4        7       10 </v>
   <v type="int" >        2        2        7        9       10 </v>
   <v type="int" >        2        3        7        9       10 </v>
   <v type="int" >        2        3        4        7       10 </v>
   <v type="int" >        2        1        4        4        4 </v>
   <v type="int" >        2        4        4        4       10 </v>
   <v type="int" >        2        1        4        4       10 </v>
  </varray>
  <i name="volumeweight">      0.00260417 </i>
 </kpoints>
 <parameters>
  <separator name="general" >
   <i type="string" name="SYSTEM">unknown system</i>
   <i type="logical" name="LCOMPAT"> F  </i>
  </separator>
  <separator name="electronic" >
   <i type="string" name="PREC">accura</i>
   <i name="ENMAX">    520.00000000</i>
   <i name="ENAUG">    519.42400000</i>
   <i name="EDIFF">      0.00040000</i>
   <i type="int" name="IALGO">    68</i>
   <i type="int" name="IWAVPR">    11</i>
   <i type="int" name="NBANDS">    64</i>
   <i type="int" name="NBANDSLOW">    -1</i>
   <i type="int" name="NBANDSHIGH">    -1</i>
   <i name="NELECT">     66.00000000</i>
   <i type="int" name="TURBO">     0</i>
   <i type="int" name="IRESTART">     0</i>
   <i type="int" name="NREBOOT">     0</i>
   <i type="int" name="NMIN">     0</i>
   <i name="EREF">      0.00000000</i>
   <separator name="electronic smearing" >
    <i type="int" name="ISMEAR">    -5</i>
    <i name="SIGMA">      0.05000000</i>
    <i name="KSPACING">      0.50000000</i>
    <i type="logical" name="KGAMMA"> T  </i>
    <i type="logical" name="KBLOWUP"> T  </i>
   </separator>
   <separator name="electronic projectors" >
    <i type="logical" name="LREAL"> T  </i>
    <v name="ROPT">     -0.00025000     -0.00025000</v>
    <i type="int" name="LMAXPAW">  -100</i>
    <i type="int" name="LMAXMIX">     4</i>
    <i type="logical" name="NLSPLINE"> F  </i>
   </separator>
   <separator name="electronic startup" >
    <i type="int" name="ISTART">     0</i>
    <i type="int" name="ICHARG">     2</i>
    <i type="int" name="INIWAV">     1</i>
   </separator>
   <separator name="electronic spin" >
    <i type="int" name="ISPIN">     2</i>
    <i type="logical" name="LNONCOLLINEAR"> F  </i>
    <v name="MAGMOM">      5.00000000      5.00000000      0.60000000      0.60000000      0.60000000      0.60000000      0.60000000      0.60000000</v>
    <i name="NUPDOWN">     -1.00000000</i>
    <i type="logical" name="LSORBIT"> F  </i>
    <v name="SAXIS">      0.00000000      0.00000000      1.00000000</v>
    <i type="logical" name="LSPIRAL"> F  </i>
    <v name="QSPIRAL">      0.00000000      0.00000000      0.00000000</v>
    <i type="logical" name="LZEROZ"> F  </i>
   </separator>
   <separator name="electronic exchange-correlation" >
    <i type="logical" name="LASPH"> T  </i>
   </separator>
   <separator name="electronic convergence" >
    <i type="int" name="NELM">   100</i>
    <i type="int" name="NELMDL">    -5</i>
    <i type="int" name="NELMIN">     2</i>
    <i name="ENINI">    520.00000000</i>
    <separator name="electronic convergence detail" >
     <i type="logical" name="LDIAG"> T  </i>
     <i type="logical" name="LSUBROT"> F  </i>
     <i name="WEIMIN">      0.00100000</i>
     <i name="EBREAK">      0.00000156</i>
     <i name="DEPER">      0.30000000</i>
     <i type="int" name="NRMM">     4</i>
     <i name="TIME">      0.40000000</i>
    </separator>
   </separator>
   <separator name="electronic mixer" >
    <i name="AMIX">      0.40000000</i>
    <i name="BMIX">      1.00000000</i>
    <i name="AMIN">      0.10000000</i>
    <i name="AMIX_MAG">      1.60000000</i>
    <i name="BMIX_MAG">      1.00000000</i>
    <separator name="electronic mixer details" >
     <i type="int" name="IMIX">     4</i>
     <i type="logical" name="MIXFIRST"> F  </i>
     <i type="int" name="MAXMIX">   -45</i>
     <i name="WC">    100.00000000</i>
     <i type="int" name="INIMIX">     1</i>
     <i type="int" name="MIXPRE">     1</i>
     <i type="int" name="MREMOVE">     5</i>
    </separator>
   </separator>
   <separator name="electronic dipolcorrection" >
    <i type="logical" name="LDIPOL"> F  </i>
    <i type="logical" name="LMONO"> F  </i>
    <i type="int" name="IDIPOL">     0</i>
    <i name="EPSILON">      1.00000000</i>
    <v name="DIPOL">   -100.00000000   -100.00000000   -100.00000000</v>
    <i name="EFIELD">      0.00000000</i>
    <i type="logical" name="LVACPOTAV"> F  </i>
   </separator>
  </separator>
  <separator name="grids" >
   <i type="int" name="NGX">    48</i>
   <i type="int" name="NGY">    48</i>
   <i type="int" name="NGZ">    50</i>
   <i type="int" name="NGXF">    96</i>
   <i type="int" name="NGYF">    96</i>
   <i type="int" name="NGZF">   100</i>
   <i type="logical" name="ADDGRID"> F  </i>
  </separator>
  <separator name="ionic" >
   <i type="int" name="NSW">    99</i>
   <i type="int" name="IBRION">     2</i>
   <i type="int" name="MDALGO">     0</i>
   <i type="int" name="ISIF">     3</i>
   <i name="PSTRESS">      0.00000000</i>
   <i name="EDIFFG">      0.00400000</i>
   <i type="int" name="NFREE">     1</i>
   <i name="POTIM">      0.50000000</i>
   <i name="SMASS">     -3.00000000</i>
   <i name="SCALEE">      1.00000000</i>
  </separator>
  <separator name="ionic md" >
   <i name="TEBEG">      0.00010000</i>
   <i name="TEEND">      0.00010000</i>
   <i type="int" name="NBLOCK">     1</i>
   <i type="int" name="KBLOCK">    99</i>
   <i type="int" name="NPACO">   256</i>
   <i name="APACO">     10.00000000</i>
  </separator>
  <separator name="symmetry" >
   <i type="int" name="ISYM">     2</i>
   <i name="SYMPREC">      0.00001000</i>
  </separator>
  <separator name="dos" >
   <i type="int" name="LORBIT">    11</i>
   <v name="RWIGS">     -1.00000000     -1.00000000</v>
   <i type="int" name="NEDOS">   301</i>
   <i name="EMIN">     10.00000000</i>
   <i name="EMAX">    -10.00000000</i>
   <i name="EFERMI">      0.00000000</i>
  </separator>
  <separator name="writing" >
   <i type="int" name="NWRITE">     2</i>
   <i type="logical" name="LWAVE"> F  </i>
   <i type="logical" name="LDOWNSAMPLE"> F  </i>
   <i type="logical" name="LCHARG"> T  </i>
   <i type="logical" name="LPARD"> F  </i>
   <i type="logical" name="LVTOT"> F  </i>
   <i type="logical" name="LVHAR"> F  </i>
   <i type="logical" name="LELF"> F  </i>
   <i type="logical" name="LOPTICS"> F  </i>
   <v name="STM">      0.00000000      0.00000000      0.00000000      0.00000000      0.00000000      0.00000000      0.00000000</v>
  </separator>
  <separator name="performance" >
   <i type="int" name="NPAR">    32</i>
   <i type="int" name="NSIM">     4</i>
   <i type="int" name="NBLK">    -1</i>
   <i type="logical" name="LPLANE"> T  </i>
   <i type="logical" name="LSCALAPACK"> T  </i>
   <i type="logical" name="LSCAAWARE"> F  </i>
   <i type="logical" name="LSCALU"> F  </i>
   <i type="logical" name="LASYNC"> F  </i>
   <i type="logical" name="LORBITALREAL"> F  </i>
  </separator>
  <separator name="miscellaneous" >
   <i type="int" name="IDIOT">     3</i>
   <i type="int" name="PHON_NSTRUCT">    -1</i>
   <i type="logical" name="LMUSIC"> F  </i>
   <v name="POMASS">     51.99600000     35.45300000</v>
   <v name="DARWINR">      0.00000000      0.00000000</v>
   <v name="DARWINV">      1.00000000      1.00000000</v>
   <i type="logical" name="LCORR"> T  </i>
  </separator>
  <i type="logical" name="GGA_COMPAT"> T  </i>
  <i type="logical" name="LBERRY"> F  </i>
  <i type="int" name="ICORELEVEL">     0</i>
  <i type="logical" name="LDAU"> F  </i>
  <i type="int" name="I_CONSTRAINED_M">     0</i>
  <separator name="electronic exchange-correlation" >
   <i type="string" name="GGA    ">PE</i>
   <i type="string" name="XC_C">1</i>
   <i type="int" name="VOSKOWN">     0</i>
   <i type="logical" name="LHFCALC"> F  </i>
   <i type="string" name="PRECFOCK"></i>
   <i type="logical" name="LSYMGRAD"> F  </i>
   <i type="logical" name="LHFONE"> F  </i>
   <i type="logical" name="LRHFCALC"> F  </i>
   <i type="logical" name="LTHOMAS"> F  </i>
   <i type="logical" name="LMODELHF"> F  </i>
   <i type="logical" name="LFOCKACE"> F  </i>
   <i name="ENCUT4O">     -1.00000000</i>
   <i type="int" name="EXXOEP">     0</i>
   <i type="int" name="FOURORBIT">     0</i>
   <i name="AEXX">      0.00000000</i>
   <i name="HFALPHA">      0.00000000</i>
   <i name="MCALPHA">      0.00000000</i>
   <i name="ALDAX">      1.00000000</i>
   <i name="AGGAX">      1.00000000</i>
   <i name="AMGGAX">      1.00000000</i>
   <i name="ALDAC">      1.00000000</i>
   <i name="AGGAC">      1.00000000</i>
   <i name="AMGGAC">      1.00000000</i>
   <i type="int" name="NKREDX">     1</i>
   <i type="int" name="NKREDY">     1</i>
   <i type="int" name="NKREDZ">     1</i>
   <i type="logical" name="SHIFTRED"> F  </i>
   <i type="logical" name="ODDONLY"> F  </i>
   <i type="logical" name="EVENONLY"> F  </i>
   <i type="int" name="LMAXFOCK">     0</i>
   <i type="int" name="NMAXFOCKAE">     0</i>
   <i type="logical" name="LFOCKAEDFT"> F  </i>
   <i name="HFSCREEN">      0.00000000</i>
   <i name="HFSCREENC">      0.00000000</i>
   <i type="int" name="NBANDSGWLOW">     0</i>
  </separator>
  <separator name="vdW DFT" >
   <i type="logical" name="LUSE_VDW"> F  </i>
   <i type="int" name="IVDW_NL">    -1</i>
   <i type="logical" name="LSPIN_VDW"> F  </i>
   <i name="ZAB_VDW">     -0.84910000</i>
   <i name="GAMMA_VDW">      1.39626340</i>
   <i name="ALPHA_VDW">      0.00000000</i>
   <i name="PARAM1">      0.12340000</i>
   <i name="PARAM2">      1.00000000</i>
   <i name="BPARAM">      6.30000000</i>
   <i name="CPARAM">      0.00930000</i>
  </separator>
  <separator name="model GW" >
   <i type="int" name="MODEL_GW">     0</i>
   <i name="MODEL_EPS0">     14.98191811</i>
   <i name="MODEL_ALPHA">      1.00000000</i>
  </separator>
  <separator name="linear response parameters" >
   <i type="logical" name="LEPSILON"> F  </i>
   <i type="logical" name="LRPA"> F  </i>
   <i type="logical" name="LNABLA"> F  </i>
   <i type="logical" name="LVEL"> F  </i>
   <i name="CSHIFT">      0.10000000</i>
   <i name="OMEGAMAX">     -1.00000000</i>
   <i name="DEG_THRESHOLD">      0.00200000</i>
   <i name="RTIME">     -0.10000000</i>
   <i name="WPLASMAI">      0.00000000</i>
   <v name="DFIELD">      0.00000000      0.00000000      0.00000000</v>
   <v name="WPLASMA">      0.00000000      0.00000000      0.00000000      0.00000000      0.00000000      0.00000000      0.00000000      0.00000000      0.00000000</v>
  </separator>
  <separator name="orbital magnetization" >
   <i type="logical" name="NUCIND"> F  </i>
   <v name="MAGPOS">      0.00000000      0.00000000      0.00000000</v>
   <i type="logical" name="LNICSALL"> T  </i>
   <i type="logical" name="ORBITALMAG"> F  </i>
   <i type="logical" name="LMAGBLOCH"> F  </i>
   <i type="logical" name="LCHIMAG"> F  </i>
   <i type="logical" name="LGAUGE"> T  </i>
   <i type="int" name="MAGATOM">     0</i>
   <v name="MAGDIPOL">      0.00000000      0.00000000      0.00000000</v>
   <v name="AVECCONST">      0.00000000      0.00000000      0.00000000</v>
  </separator>
  <separator name="response functions" >
   <i type="logical" name="LALL_IN_ONE"> F  </i>
   <i type="int" name="IALL_IN_ONE">    -1</i>
   <i type="int" name="NBANDS_WAVE">    -1</i>
   <i type="logical" name="LFINITE_TEMPERATURE"> F  </i>
   <i type="logical" name="LADDER"> F  </i>
   <i type="logical" name="LRPAFORCE"> F  </i>
   <i type="logical" name="LFXC"> F  </i>
   <i type="logical" name="LHARTREE"> T  </i>
   <i type="int" name="IBSE">     0</i>
   <v type="int" name="KPOINT">    -1     0     0     0</v>
   <i type="logical" name="LTCTC"> F  </i>
   <i type="logical" name="LTCTE"> F  </i>
   <i type="logical" name="LTETE"> F  </i>
   <i type="logical" name="LTRIPLET"> F  </i>
   <i type="logical" name="LFXCEPS"> F  </i>
   <i type="logical" name="LFXHEG"> F  </i>
   <i type="int" name="NATURALO">     2</i>
   <i type="logical" name="LHOLEGF"> F  </i>
   <i type="logical" name="L2ORDER"> F  </i>
   <i type="logical" name="LDMP1"> F  </i>
   <i type="logical" name="LMP2LT"> F  </i>
   <i type="logical" name="LSMP2LT"> F  </i>
   <i type="logical" name="LGWLF"> F  </i>
   <i name="ENCUTGW">     -1.60000002</i>
   <i name="ENCUTGWSOFT">     -1.60000002</i>
   <i name="ENCUTLF">     -1.00000000</i>
   <i type="logical" name="ESF_SPLINES"> F  </i>
   <i name="ESF_CONV">      0.01000000</i>
   <i type="int" name="ESF_NINTER">    15</i>
   <i type="int" name="LMAXMP2">    -1</i>
   <i name="SCISSOR">      0.00000000</i>
   <i type="int" name="NOMEGA">     0</i>
   <i type="int" name="NOMEGAR">     0</i>
   <i type="int" name="NBANDSGW">    -1</i>
   <i type="int" name="NBANDSO">    -1</i>
   <i type="int" name="NBANDSV">    -1</i>
   <i type="int" name="NELMGW">     1</i>
   <i type="int" name="NELMHF">     1</i>
   <i type="int" name="DIM">     3</i>
   <i type="int" name="IESPILON">     4</i>
   <i type="int" name="ANTIRES">     0</i>
   <i name="OMEGAMAX">    -30.00000000</i>
   <i name="OMEGAMIN">    -30.00000000</i>
   <i name="OMEGATL">   -200.00000000</i>
   <i type="int" name="OMEGAGRID">     0</i>
   <i name="CSHIFT">     -0.10000000</i>
   <i type="logical" name="LSELFENERGY"> F  </i>
   <i type="logical" name="LSPECTRAL"> F  </i>
   <i type="logical" name="LSPECTRALGW"> F  </i>
   <i type="logical" name="LSINGLES"> F  </i>
   <i type="logical" name="LFERMIGW"> F  </i>
   <i type="logical" name="ODDONLYGW"> F  </i>
   <i type="logical" name="EVENONLYGW"> F  </i>
   <i type="int" name="NKREDLFX">     1</i>
   <i type="int" name="NKREDLFY">     1</i>
   <i type="int" name="NKREDLFZ">     1</i>
   <i type="int" name="MAXMEM">  2800</i>
   <i type="int" name="TELESCOPE">     0</i>
   <i type="int" name="NTAUPAR">    -1</i>
   <i type="int" name="NOMEGAPAR">    -1</i>
   <i name="DAMP_NEWTON">      0.80000001</i>
   <i name="LAMBDA">      1.00000000</i>
  </separator>
  <separator name="External order field" >
   <i name="OFIELD_KAPPA">      0.00000000</i>
   <v name="OFIELD_K">      0.00000000      0.00000000      0.00000000</v>
   <i name="OFIELD_Q6_NEAR">      0.00000000</i>
   <i name="OFIELD_Q6_FAR">      0.00000000</i>
   <i name="OFIELD_A">      0.00000000</i>
  </separator>
  <separator name="optional k-points parameters" >
   <i type="int" name="KPOINTS_OPT_MODE">     1</i>
   <i type="logical" name="LKPOINTS_OPT"> F  </i>
  </separator>
 </parameters>
 <atominfo>
  <atoms>       8 </atoms>
  <types>       2 </types>
  <array name="atoms" >
   <dimension dim="1">ion</dimension>
   <field type="string">element</field>
   <field type="int">atomtype</field>
   <set>
    <rc><c>Cr</c><c>   1</c></rc>
    <rc><c>Cr</c><c>   1</c></rc>
    <rc><c>Cl</c><c>   2</c></rc>
    <rc><c>Cl</c><c>   2</c></rc>
    <rc><c>Cl</c><c>   2</c></rc>
    <rc><c>Cl</c><c>   2</c></rc>
    <rc><c>Cl</c><c>   2</c></rc>
    <rc><c>Cl</c><c>   2</c></rc>
   </set>
  </array>
  <array name="atomtypes" >
   <dimension dim="1">type</dimension>
   <field type="int">atomspertype</field>
   <field type="string">element</field>
   <field>mass</field>
   <field>valence</field>
   <field type="string">pseudopotential</field>
   <set>
    <rc><c>   2</c><c>Cr</c><c>     51.99600000</c><c>     12.00000000</c><c> PAW_PBE Cr_pv 07Sep2000                </c></rc>
    <rc><c>   6</c><c>Cl</c><c>     35.45300000</c><c>      7.00000000</c><c>  PAW_PBE Cl 17Jan2003                  </c></rc>
   </set>
  </array>
 </atominfo>
 <structure name="initialpos" >
  <crystal>
   <varray name="basis" >
    <v>      -5.24797400      -3.03045300       0.00000000 </v>
    <v>       5.24797400      -3.03045300       0.00000000 </v>
    <v>       0.00000000       1.96590000       6.28025000 </v>
   </varray>
   <i name="volume">    199.75890809 </i>
   <varray name="rec_basis" >
    <v>      -0.09527486      -0.16499183       0.05164722 </v>
    <v>       0.09527486      -0.16499183       0.05164722 </v>
    <v>       0.00000000       0.00000000       0.15922933 </v>
   </varray>
  </crystal>
  <varray name="positions" >
   <v>       0.83331900       0.16668100       0.00000000 </v>
   <v>       0.16668100       0.83331900       0.00000000 </v>
   <v>       0.43115000       0.07168100       0.78755800 </v>
   <v>       0.92831900       0.56885000       0.21244200 </v>
   <v>       0.79087800       0.79087800       0.78687400 </v>
   <v>       0.20912200       0.20912200       0.21312600 </v>
   <v>       0.07168100       0.43115000       0.78755800 </v>
   <v>       0.56885000       0.92831900       0.21244200 </v>
  </varray>
 </structure>
 <calculation>
  <scstep>
   <time name="dav">    2.56    2.58</time>
   <time name="total">    3.06    3.09</time>
   <energy>
    <i name="alphaZ">    146.87479160 </i>
    <i name="ewald">  -3095.26117004 </i>
    <i name="hartreedc">  -2274.57982647 </i>
    <i name="XCdc">    234.52853950 </i>
    <i name="pawpsdc">   3538.39426571 </i>
    <i name="pawaedc">  -3635.13046243 </i>
    <i name="eentropy">      0.00000000 </i>
    <i name="bandstr">   -171.42202978 </i>
    <i name="atom">   5753.46335376 </i>
    <i name="e_fr_energy">    496.86746187 </i>
    <i name="e_wo_entrp">    496.86746187 </i>
    <i name="e_0_energy">    496.86746187 </i>
   </energy>
  </scstep>
  <scstep>
   <time name="dav">    2.93    2.95</time>
   <time name="total">    2.93    2.95</time>
   <energy>
    <i name="e_fr_energy">     -4.59111392 </i>
    <i name="e_wo_entrp">     -4.59111392 </i>
    <i name="e_0_energy">     -4.59111392 </i>
   </energy>
  </scstep>
  <scstep>
   <time name="dav">    3.34    3.37</time>
   <time name="total">    3.35    3.37</time>
   <energy>
    <i name="e_fr_energy">    -40.30409273 </i>
    <i name="e_wo_entrp">    -40.30409273 </i>
    <i name="e_0_energy">    -40.30409273 </i>
   </energy>
  </scstep>
  <scstep>
   <time name="dav">    2.95    2.97</time>
   <time name="total">    2.95    2.98</time>
   <energy>
    <i name="e_fr_energy">    -41.17632738 </i>
    <i name="e_wo_entrp">    -41.17632738 </i>
    <i name="e_0_energy">    -41.17632738 </i>
   </energy>
  </scstep>
  <scstep>
   <time name="dav">    3.83    3.86</time>
   <time name="total">    3.98    4.01</time>
   <energy>
    <i name="e_fr_energy">    -41.21747507 </i>
    <i name="e_wo_entrp">    -41.21747507 </i>
    <i name="e_0_energy">    -41.21747507 </i>
   </energy>
  </scstep>
  <scstep>
   <time name="diag">    0.39    0.39</time>
   <time name="diis">    2.06    2.08</time>
   <time name="orth">    0.02    0.02</time>
   <time name="total">    2.95    2.97</time>
   <energy>
    <i name="e_fr_energy">    -38.91636068 </i>
    <i name="e_wo_entrp">    -38.91636068 </i>
    <i name="e_0_energy">    -38.91636068 </i>
   </energy>
  </scstep>
  <scstep>
   <time name="diag">    0.40    0.40</time>
   <time name="diis">    1.97    1.98</time>
   <time name="orth">    0.02    0.02</time>
   <time name="total">    2.87    2.88</time>
   <energy>
    <i name="e_fr_energy">    -39.37249566 </i>
    <i name="e_wo_entrp">    -39.37249566 </i>
    <i name="e_0_energy">    -39.37249566 </i>
   </energy>
  </scstep>
  <scstep>
   <time name="diag">    0.39    0.39</time>
   <time name="diis">    1.95    1.97</time>
   <time name="orth">    0.02    0.02</time>
   <time name="total">    2.82    2.84</time>
   <energy>
    <i name="e_fr_energy">    -39.46102338 </i>
    <i name="e_wo_entrp">    -39.46102338 </i>
    <i name="e_0_energy">    -39.46102338 </i>
   </energy>
  </scstep>
  <scstep>
   <time name="diag">    0.39    0.40</time>
   <time name="diis">    1.92    1.93</time>
   <time name="orth">    0.02    0.02</time>
   <time name="total">    2.78    2.80</time>
   <energy>
    <i name="e_fr_energy">    -39.44952575 </i>
    <i name="e_wo_entrp">    -39.44952575 </i>
    <i name="e_0_energy">    -39.44952575 </i>
   </energy>
  </scstep>
  <scstep>
   <time name="diag">    0.39    0.39</time>
   <time name="diis">    2.01    2.03</time>
   <time name="orth">    0.02    0.02</time>
   <time name="total">    2.87    2.89</time>
   <energy>
    <i name="e_fr_energy">    -39.45550632 </i>
    <i name="e_wo_entrp">    -39.45550632 </i>
    <i name="e_0_energy">    -39.45550632 </i>
   </energy>
  </scstep>
  <scstep>
   <time name="diag">    0.39    0.39</time>
   <time name="diis">    2.09    2.11</time>
   <time name="orth">    0.02    0.02</time>
   <time name="total">    2.96    2.98</time>
   <energy>
    <i name="e_fr_energy">    -39.45909458 </i>
    <i name="e_wo_entrp">    -39.45909458 </i>
    <i name="e_0_energy">    -39.45909458 </i>
   </energy>
  </scstep>
  <scstep>
   <time name="diag">    0.40    0.40</time>
   <time name="diis">    1.57    1.58</time>
   <time name="orth">    0.02    0.02</time>
   <time name="total">    2.33    2.35</time>
   <energy>
    <i name="alphaZ">    146.87479160 </i>
    <i name="ewald">  -3095.26117004 </i>
    <i name="hartreedc">  -2225.72757038 </i>
    <i name="XCdc">    231.24249906 </i>
    <i name="pawpsdc">   3595.09511495 </i>
    <i name="pawaedc">  -3697.45942245 </i>
    <i name="eentropy">      0.00000000 </i>
    <i name="bandstr">   -747.68693527 </i>
    <i name="atom">   5753.46335376 </i>
    <i name="e_fr_energy">    -39.45933877 </i>
    <i name="e_wo_entrp">    -39.45933877 </i>
    <i name="e_0_energy">    -39.45933877 </i>
   </energy>
  </scstep>
  <structure>
   <crystal>
    <varray name="basis" >
     <v>      -5.24797400      -3.03045300       0.00000000 </v>
     <v>       5.24797400      -3.03045300       0.00000000 </v>
     <v>       0.00000000       1.96590000       6.28025000 </v>
    </varray>
    <i name="volume">    199.75890809 </i>
    <varray name="rec_basis" >
     <v>      -0.09527486      -0.16499183       0.05164722 </v>
     <v>       0.09527486      -0.16499183       0.05164722 </v>
     <v>       0.00000000       0.00000000       0.15922933 </v>
    </varray>
   </crystal>
   <varray name="positions" >
    <v>       0.83331900       0.16668100       0.00000000 </v>
    <v>       0.16668100       0.83331900       0.00000000 </v>
    <v>       0.43115000       0.07168100       0.78755800 </v>
    <v>       0.92831900       0.56885000       0.21244200 </v>
    <v>       0.79087800       0.79087800       0.78687400 </v>
    <v>       0.20912200       0.20912200       0.21312600 </v>
    <v>       0.07168100       0.43115000       0.78755800 </v>
    <v>       0.56885000       0.92831900       0.21244200 </v>
   </varray>
  </structure>
  <varray name="forces" >
   <v>      -0.01000935      -0.00000000       0.00000000 </v>
   <v>       0.01000935      -0.00000000       0.00000000 </v>
   <v>       0.00676950      -0.00267688      -0.00081177 </v>
   <v>       0.00676950       0.00267688       0.00081177 </v>
   <v>       0.00000000       0.00555992       0.00205359 </v>
   <v>       0.00000000      -0.00555992      -0.00205359 </v>
   <v>      -0.00676950      -0.00267688      -0.00081177 </v>
   <v>      -0.00676950       0.00267688       0.00081177 </v>
  </varray>
  <varray name="stress" >
   <v>      -1.30244427       0.00000000       0.00000000 </v>
   <v>       0.00000000      -1.18429937      -0.05030282 </v>
   <v>       0.00000000      -0.05022817      -0.01384443 </v>
  </varray>
  <energy>
   <i name="e_fr_energy">    -39.45933877 </i>
   <i name="e_wo_entrp">    -39.45933877 </i>
   <i name="e_0_energy">    -39.45933877 </i>
  </energy>
  <time name="totalsc">   40.66   40.96</time>
  <eigenvalues>
   <array>
    <dimension dim="1">band</dimension>
    <dimension dim="2">kpoint</dimension>
    <dimension dim="3">spin</dimension>
    <field>eigene</field>
    <field>occ</field>
    <set>
     <set comment="spin 1">
      <set comment="kpoint 1">
       <r>  -43.2474    1.0000 </r>
       <r>  -43.2460    1.0000 </r>
       <r>  -43.2447    1.0000 </r>
       <r>  -43.2418    1.0000 </r>
       <r>  -43.2351    1.0000 </r>
       <r>  -43.2334    1.0000 </r>
       <r>  -14.5270    1.0000 </r>
       <r>  -13.7559    1.0000 </r>
       <r>  -13.7412    1.0000 </r>
       <r>  -13.6613    1.0000 </r>
       <r>  -13.5448    1.0000 </r>
       <r>  -13.5350    1.0000 </r>
       <r>   -4.2824    1.0000 </r>
       <r>   -3.9228    1.0000 </r>
       <r>   -3.4555    1.0000 </r>
       <r>   -3.4152    1.0000 </r>
       <r>   -3.4021    1.0000 </r>
       <r>   -3.2710    1.0000 </r>
       <r>   -3.0261    1.0000 </r>
       <r>   -2.9835    1.0000 </r>
       <r>   -2.8048    1.0000 </r>
       <r>   -2.2476    1.0000 </r>
       <r>   -1.9493    1.0000 </r>
       <r>   -1.9356    1.0000 </r>
       <r>   -1.5385    1.0000 </r>
       <r>   -1.3216    1.0000 </r>
       <r>   -1.2231    1.0000 </r>
       <r>   -1.0698    1.0000 </r>
       <r>   -0.8519    1.0000 </r>
       <r>   -0.8063    1.0000 </r>
       <r>   -0.0464    1.0000 </r>
       <r>    0.1710    1.0000 </r>
       <r>    0.1738    1.0000 </r>
       <r>    0.3761    1.0000 </r>
       <r>    0.5090    1.0000 </r>
       <r>    0.5487    1.0000 </r>
       <r>    2.4277    0.0000 </r>
       <r>    2.5181    0.0000 </r>
       <r>    2.5817    0.0000 </r>
       <r>    2.6672    0.0000 </r>
       <r>    7.2637    0.0000 </r>
       <r>    8.5614    0.0000 </r>
       <r>    8.5891    0.0000 </r>
       <r>    9.4637    0.0000 </r>
       <r>    9.9252    0.0000 </r>
       <r>   10.0447    0.0000 </r>
       <r>   10.0543    0.0000 </r>
       <r>   10.1001    0.0000 </r>
       <r>   10.3117    0.0000 </r>
       <r>   10.6763    0.0000 </r>
       <r>   10.7750    0.0000 </r>
       <r>   11.0735    0.0000 </r>
       <r>   11.0768    0.0000 </r>
       <r>   11.2190    0.0000 </r>
       <r>   11.5488    0.0000 </r>
       <r>   11.5916    0.0000 </r>
       <r>   11.9506    0.0000 </r>
       <r>   12.5413    0.0000 </r>
       <r>   12.8299    0.0000 </r>
       <r>   12.9141    0.0000 </r>
       <r>   13.0533    0.0000 </r>
       <r>   13.2925    0.0000 </r>
       <r>   13.7039    0.0000 </r>
       <r>   14.2258    0.0000 </r>
      </set>
      <set comment="kpoint 2">
       <r>  -43.2480    1.0000 </r>
       <r>  -43.2439    1.0000 </r>
       <r>  -43.2434    1.0000 </r>
       <r>  -43.2425    1.0000 </r>
       <r>  -43.2377    1.0000 </r>
       <r>  -43.2329    1.0000 </r>
       <r>  -14.2793    1.0000 </r>
       <r>  -14.0134    1.0000 </r>
       <r>  -13.7173    1.0000 </r>
       <r>  -13.6558    1.0000 </r>
       <r>  -13.5837    1.0000 </r>
       <r>  -13.5642    1.0000 </r>
       <r>   -4.1982    1.0000 </r>
       <r>   -3.7844    1.0000 </r>
       <r>   -3.4838    1.0000 </r>
       <r>   -3.4216    1.0000 </r>
       <r>   -3.2858    1.0000 </r>
       <r>   -3.2225    1.0000 </r>
       <r>   -3.2027    1.0000 </r>
       <r>   -2.8653    1.0000 </r>
       <r>   -2.6049    1.0000 </r>
       <r>   -2.2415    1.0000 </r>
       <r>   -2.1543    1.0000 </r>
       <r>   -1.8065    1.0000 </r>
       <r>   -1.7121    1.0000 </r>
       <r>   -1.4708    1.0000 </r>
       <r>   -1.1960    1.0000 </r>
       <r>   -1.1314    1.0000 </r>
       <r>   -0.8867    1.0000 </r>
       <r>   -0.8732    1.0000 </r>
       <r>   -0.0996    1.0000 </r>
       <r>    0.1770    1.0000 </r>
       <r>    0.2234    1.0000 </r>
       <r>    0.4402    1.0000 </r>
       <r>    0.4683    1.0000 </r>
       <r>    0.6448    1.0000 </r>
       <r>    2.4549    0.0000 </r>
       <r>    2.5005    0.0000 </r>
       <r>    2.5656    0.0000 </r>
       <r>    2.6422    0.0000 </r>
       <r>    8.1881    0.0000 </r>
       <r>    8.2712    0.0000 </r>
       <r>    8.7382    0.0000 </r>
       <r>    8.8451    0.0000 </r>
       <r>    8.8946    0.0000 </r>
       <r>    9.6941    0.0000 </r>
       <r>    9.9573    0.0000 </r>
       <r>   10.0267    0.0000 </r>
       <r>   10.2248    0.0000 </r>
       <r>   10.3070    0.0000 </r>
       <r>   10.8186    0.0000 </r>
       <r>   11.2420    0.0000 </r>
       <r>   11.3547    0.0000 </r>
       <r>   11.6507    0.0000 </r>
       <r>   11.7059    0.0000 </r>
       <r>   11.8362    0.0000 </r>
       <r>   12.0848    0.0000 </r>
       <r>   12.4166    0.0000 </r>
       <r>   12.6045    0.0000 </r>
       <r>   12.7459    0.0000 </r>
       <r>   13.0924    0.0000 </r>
       <r>   13.6377    0.0000 </r>
       <r>   14.0585    0.0000 </r>
       <r>   14.2913    0.0000 </r>
      </set>
      <set comment="kpoint 3">
       <r>  -43.2478    1.0000 </r>
       <r>  -43.2446    1.0000 </r>
       <r>  -43.2443    1.0000 </r>
       <r>  -43.2422    1.0000 </r>
       <r>  -43.2364    1.0000 </r>
       <r>  -43.2331    1.0000 </r>
       <r>  -14.4283    1.0000 </r>
       <r>  -13.8606    1.0000 </r>
       <r>  -13.7035    1.0000 </r>
       <r>  -13.6755    1.0000 </r>
       <r>  -13.5707    1.0000 </r>
       <r>  -13.5508    1.0000 </r>
       <r>   -4.2618    1.0000 </r>
       <r>   -3.9328    1.0000 </r>
       <r>   -3.5804    1.0000 </r>
       <r>   -3.4357    1.0000 </r>
       <r>   -3.3982    1.0000 </r>
       <r>   -3.0990    1.0000 </r>
       <r>   -3.0956    1.0000 </r>
       <r>   -2.9737    1.0000 </r>
       <r>   -2.5914    1.0000 </r>
       <r>   -2.2749    1.0000 </r>
       <r>   -1.9881    1.0000 </r>
       <r>   -1.8046    1.0000 </r>
       <r>   -1.6022    1.0000 </r>
       <r>   -1.4110    1.0000 </r>
       <r>   -1.2060    1.0000 </r>
       <r>   -1.1437    1.0000 </r>
       <r>   -0.9365    1.0000 </r>
       <r>   -0.6790    1.0000 </r>
       <r>   -0.0452    1.0000 </r>
       <r>    0.1545    1.0000 </r>
       <r>    0.2111    1.0000 </r>
       <r>    0.3843    1.0000 </r>
       <r>    0.4940    1.0000 </r>
       <r>    0.5855    1.0000 </r>
       <r>    2.4781    0.0000 </r>
       <r>    2.5102    0.0000 </r>
       <r>    2.5604    0.0000 </r>
       <r>    2.6628    0.0000 </r>
       <r>    7.5142    0.0000 </r>
       <r>    8.1823    0.0000 </r>
       <r>    8.4281    0.0000 </r>
       <r>    8.8704    0.0000 </r>
       <r>    9.0697    0.0000 </r>
       <r>    9.2761    0.0000 </r>
       <r>    9.9479    0.0000 </r>
       <r>   10.2606    0.0000 </r>
       <r>   10.3711    0.0000 </r>
       <r>   10.5257    0.0000 </r>
       <r>   10.9345    0.0000 </r>
       <r>   11.2470    0.0000 </r>
       <r>   11.3862    0.0000 </r>
       <r>   11.7321    0.0000 </r>
       <r>   12.0278    0.0000 </r>
       <r>   12.1820    0.0000 </r>
       <r>   12.3203    0.0000 </r>
       <r>   12.4813    0.0000 </r>
       <r>   12.6566    0.0000 </r>
       <r>   12.8125    0.0000 </r>
       <r>   13.1051    0.0000 </r>
       <r>   13.5946    0.0000 </r>
       <r>   14.0089    0.0000 </r>
       <r>   14.5004    0.0000 </r>
      </set>
      <set comment="kpoint 4">
       <r>  -43.2473    1.0000 </r>
       <r>  -43.2466    1.0000 </r>
       <r>  -43.2449    1.0000 </r>
       <r>  -43.2416    1.0000 </r>
       <r>  -43.2342    1.0000 </r>
       <r>  -43.2338    1.0000 </r>
       <r>  -14.5983    1.0000 </r>
       <r>  -13.7480    1.0000 </r>
       <r>  -13.6789    1.0000 </r>
       <r>  -13.6535    1.0000 </r>
       <r>  -13.5352    1.0000 </r>
       <r>  -13.5272    1.0000 </r>
       <r>   -4.3400    1.0000 </r>
       <r>   -4.0169    1.0000 </r>
       <r>   -3.4666    1.0000 </r>
       <r>   -3.4215    1.0000 </r>
       <r>   -3.3732    1.0000 </r>
       <r>   -3.3383    1.0000 </r>
       <r>   -3.0210    1.0000 </r>
       <r>   -2.9264    1.0000 </r>
       <r>   -2.9098    1.0000 </r>
       <r>   -2.2201    1.0000 </r>
       <r>   -2.1392    1.0000 </r>
       <r>   -2.0481    1.0000 </r>
       <r>   -1.4118    1.0000 </r>
       <r>   -1.1260    1.0000 </r>
       <r>   -1.0907    1.0000 </r>
       <r>   -0.8963    1.0000 </r>
       <r>   -0.7684    1.0000 </r>
       <r>   -0.7263    1.0000 </r>
       <r>   -0.1037    1.0000 </r>
       <r>    0.1644    1.0000 </r>
       <r>    0.2134    1.0000 </r>
       <r>    0.3064    1.0000 </r>
       <r>    0.4519    1.0000 </r>
       <r>    0.5000    1.0000 </r>
       <r>    2.4503    0.0000 </r>
       <r>    2.4998    0.0000 </r>
       <r>    2.6652    0.0000 </r>
       <r>    2.6931    0.0000 </r>
       <r>    6.7394    0.0000 </r>
       <r>    8.2224    0.0000 </r>
       <r>    8.3349    0.0000 </r>
       <r>    9.1297    0.0000 </r>
       <r>    9.5543    0.0000 </r>
       <r>    9.8350    0.0000 </r>
       <r>   10.1597    0.0000 </r>
       <r>   10.2995    0.0000 </r>
       <r>   10.5126    0.0000 </r>
       <r>   10.8286    0.0000 </r>
       <r>   11.0747    0.0000 </r>
       <r>   11.2251    0.0000 </r>
       <r>   11.4351    0.0000 </r>
       <r>   11.6538    0.0000 </r>
       <r>   11.7213    0.0000 </r>
       <r>   12.0499    0.0000 </r>
       <r>   12.1203    0.0000 </r>
       <r>   12.4899    0.0000 </r>
       <r>   12.7044    0.0000 </r>
       <r>   12.9999    0.0000 </r>
       <r>   13.2888    0.0000 </r>
       <r>   13.4483    0.0000 </r>
       <r>   13.7674    0.0000 </r>
       <r>   14.0295    0.0000 </r>
      </set>
      <set comment="kpoint 5">
       <r>  -43.2483    1.0000 </r>
       <r>  -43.2435    1.0000 </r>
       <r>  -43.2431    1.0000 </r>
       <r>  -43.2415    1.0000 </r>
       <r>  -43.2393    1.0000 </r>
       <r>  -43.2327    1.0000 </r>
       <r>  -14.2085    1.0000 </r>
       <r>  -14.0691    1.0000 </r>
       <r>  -13.7532    1.0000 </r>
       <r>  -13.6049    1.0000 </r>
       <r>  -13.6032    1.0000 </r>
       <r>  -13.5805    1.0000 </r>
       <r>   -4.0732    1.0000 </r>
       <r>   -3.8276    1.0000 </r>
       <r>   -3.6121    1.0000 </r>
       <r>   -3.4309    1.0000 </r>
       <r>   -3.3220    1.0000 </r>
       <r>   -3.2331    1.0000 </r>
       <r>   -3.1251    1.0000 </r>
       <r>   -2.9701    1.0000 </r>
       <r>   -2.7789    1.0000 </r>
       <r>   -2.1617    1.0000 </r>
       <r>   -1.8706    1.0000 </r>
       <r>   -1.6492    1.0000 </r>
       <r>   -1.6403    1.0000 </r>
       <r>   -1.5932    1.0000 </r>
       <r>   -1.2968    1.0000 </r>
       <r>   -1.1025    1.0000 </r>
       <r>   -0.9448    1.0000 </r>
       <r>   -0.9197    1.0000 </r>
       <r>   -0.0654    1.0000 </r>
       <r>    0.2560    1.0000 </r>
       <r>    0.2705    1.0000 </r>
       <r>    0.4402    1.0000 </r>
       <r>    0.4556    1.0000 </r>
       <r>    0.5729    1.0000 </r>
       <r>    2.5096    0.0000 </r>
       <r>    2.5519    0.0000 </r>
       <r>    2.5559    0.0000 </r>
       <r>    2.7156    0.0000 </r>
       <r>    7.7453    0.0000 </r>
       <r>    8.1083    0.0000 </r>
       <r>    8.3546    0.0000 </r>
       <r>    8.4889    0.0000 </r>
       <r>    8.5426    0.0000 </r>
       <r>    9.4015    0.0000 </r>
       <r>    9.7564    0.0000 </r>
       <r>   10.1360    0.0000 </r>
       <r>   10.1883    0.0000 </r>
       <r>   10.6536    0.0000 </r>
       <r>   11.1121    0.0000 </r>
       <r>   11.4685    0.0000 </r>
       <r>   11.6003    0.0000 </r>
       <r>   11.7175    0.0000 </r>
       <r>   12.0298    0.0000 </r>
       <r>   12.2439    0.0000 </r>
       <r>   12.3146    0.0000 </r>
       <r>   12.3875    0.0000 </r>
       <r>   12.9869    0.0000 </r>
       <r>   13.0678    0.0000 </r>
       <r>   13.4170    0.0000 </r>
       <r>   13.8342    0.0000 </r>
       <r>   14.3483    0.0000 </r>
       <r>   14.6127    0.0000 </r>
      </set>
      <set comment="kpoint 6">
       <r>  -43.2479    1.0000 </r>
       <r>  -43.2442    1.0000 </r>
       <r>  -43.2441    1.0000 </r>
       <r>  -43.2423    1.0000 </r>
       <r>  -43.2366    1.0000 </r>
       <r>  -43.2332    1.0000 </r>
       <r>  -14.3782    1.0000 </r>
       <r>  -13.9268    1.0000 </r>
       <r>  -13.6971    1.0000 </r>
       <r>  -13.6645    1.0000 </r>
       <r>  -13.5730    1.0000 </r>
       <r>  -13.5583    1.0000 </r>
       <r>   -4.3258    1.0000 </r>
       <r>   -3.8437    1.0000 </r>
       <r>   -3.4904    1.0000 </r>
       <r>   -3.4523    1.0000 </r>
       <r>   -3.3753    1.0000 </r>
       <r>   -3.1567    1.0000 </r>
       <r>   -3.1156    1.0000 </r>
       <r>   -2.7994    1.0000 </r>
       <r>   -2.6258    1.0000 </r>
       <r>   -2.3497    1.0000 </r>
       <r>   -2.0058    1.0000 </r>
       <r>   -1.8416    1.0000 </r>
       <r>   -1.6462    1.0000 </r>
       <r>   -1.4978    1.0000 </r>
       <r>   -1.1950    1.0000 </r>
       <r>   -1.1743    1.0000 </r>
       <r>   -0.7859    1.0000 </r>
       <r>   -0.6980    1.0000 </r>
       <r>   -0.1281    1.0000 </r>
       <r>    0.1374    1.0000 </r>
       <r>    0.2023    1.0000 </r>
       <r>    0.4097    1.0000 </r>
       <r>    0.4512    1.0000 </r>
       <r>    0.6679    1.0000 </r>
       <r>    2.4830    0.0000 </r>
       <r>    2.5280    0.0000 </r>
       <r>    2.5994    0.0000 </r>
       <r>    2.6106    0.0000 </r>
       <r>    7.7855    0.0000 </r>
       <r>    7.8858    0.0000 </r>
       <r>    8.3876    0.0000 </r>
       <r>    8.9763    0.0000 </r>
       <r>    9.1758    0.0000 </r>
       <r>    9.4296    0.0000 </r>
       <r>    9.8058    0.0000 </r>
       <r>   10.1369    0.0000 </r>
       <r>   10.3063    0.0000 </r>
       <r>   10.8619    0.0000 </r>
       <r>   10.9075    0.0000 </r>
       <r>   11.1216    0.0000 </r>
       <r>   11.4046    0.0000 </r>
       <r>   11.4624    0.0000 </r>
       <r>   11.9615    0.0000 </r>
       <r>   11.9802    0.0000 </r>
       <r>   12.1886    0.0000 </r>
       <r>   12.5040    0.0000 </r>
       <r>   12.7594    0.0000 </r>
       <r>   12.9657    0.0000 </r>
       <r>   13.4228    0.0000 </r>
       <r>   13.4810    0.0000 </r>
       <r>   13.7308    0.0000 </r>
       <r>   14.1409    0.0000 </r>
      </set>
      <set comment="kpoint 7">
       <r>  -43.2478    1.0000 </r>
       <r>  -43.2446    1.0000 </r>
       <r>  -43.2443    1.0000 </r>
       <r>  -43.2422    1.0000 </r>
       <r>  -43.2364    1.0000 </r>
       <r>  -43.2331    1.0000 </r>
       <r>  -14.4156    1.0000 </r>
       <r>  -13.8729    1.0000 </r>
       <r>  -13.7071    1.0000 </r>
       <r>  -13.6833    1.0000 </r>
       <r>  -13.5620    1.0000 </r>
       <r>  -13.5523    1.0000 </r>
       <r>   -4.2350    1.0000 </r>
       <r>   -3.8665    1.0000 </r>
       <r>   -3.5384    1.0000 </r>
       <r>   -3.4281    1.0000 </r>
       <r>   -3.3909    1.0000 </r>
       <r>   -3.1620    1.0000 </r>
       <r>   -3.0963    1.0000 </r>
       <r>   -2.9533    1.0000 </r>
       <r>   -2.5762    1.0000 </r>
       <r>   -2.3185    1.0000 </r>
       <r>   -1.9922    1.0000 </r>
       <r>   -1.7855    1.0000 </r>
       <r>   -1.6198    1.0000 </r>
       <r>   -1.3968    1.0000 </r>
       <r>   -1.2827    1.0000 </r>
       <r>   -1.1838    1.0000 </r>
       <r>   -0.9251    1.0000 </r>
       <r>   -0.7698    1.0000 </r>
       <r>   -0.0479    1.0000 </r>
       <r>    0.1105    1.0000 </r>
       <r>    0.2023    1.0000 </r>
       <r>    0.4207    1.0000 </r>
       <r>    0.5273    1.0000 </r>
       <r>    0.6074    1.0000 </r>
       <r>    2.4283    0.0000 </r>
       <r>    2.4679    0.0000 </r>
       <r>    2.5696    0.0000 </r>
       <r>    2.6471    0.0000 </r>
       <r>    7.8545    0.0000 </r>
       <r>    8.3846    0.0000 </r>
       <r>    8.8679    0.0000 </r>
       <r>    9.1150    0.0000 </r>
       <r>    9.2109    0.0000 </r>
       <r>    9.5376    0.0000 </r>
       <r>    9.8667    0.0000 </r>
       <r>   10.1362    0.0000 </r>
       <r>   10.3270    0.0000 </r>
       <r>   10.4872    0.0000 </r>
       <r>   10.7570    0.0000 </r>
       <r>   11.0447    0.0000 </r>
       <r>   11.4846    0.0000 </r>
       <r>   11.5294    0.0000 </r>
       <r>   11.7423    0.0000 </r>
       <r>   12.0328    0.0000 </r>
       <r>   12.1602    0.0000 </r>
       <r>   12.2323    0.0000 </r>
       <r>   12.3993    0.0000 </r>
       <r>   12.8593    0.0000 </r>
       <r>   13.0847    0.0000 </r>
       <r>   13.5356    0.0000 </r>
       <r>   13.6530    0.0000 </r>
       <r>   14.0868    0.0000 </r>
      </set>
      <set comment="kpoint 8">
       <r>  -43.2483    1.0000 </r>
       <r>  -43.2435    1.0000 </r>
       <r>  -43.2431    1.0000 </r>
       <r>  -43.2415    1.0000 </r>
       <r>  -43.2393    1.0000 </r>
       <r>  -43.2326    1.0000 </r>
       <r>  -14.1968    1.0000 </r>
       <r>  -14.0759    1.0000 </r>
       <r>  -13.7504    1.0000 </r>
       <r>  -13.6193    1.0000 </r>
       <r>  -13.6069    1.0000 </r>
       <r>  -13.5721    1.0000 </r>
       <r>   -4.0348    1.0000 </r>
       <r>   -3.8338    1.0000 </r>
       <r>   -3.5801    1.0000 </r>
       <r>   -3.4281    1.0000 </r>
       <r>   -3.4107    1.0000 </r>
       <r>   -3.1518    1.0000 </r>
       <r>   -3.1038    1.0000 </r>
       <r>   -2.9754    1.0000 </r>
       <r>   -2.7779    1.0000 </r>
       <r>   -2.2198    1.0000 </r>
       <r>   -1.8485    1.0000 </r>
       <r>   -1.6883    1.0000 </r>
       <r>   -1.6477    1.0000 </r>
       <r>   -1.5221    1.0000 </r>
       <r>   -1.2956    1.0000 </r>
       <r>   -1.1077    1.0000 </r>
       <r>   -1.0123    1.0000 </r>
       <r>   -0.9162    1.0000 </r>
       <r>   -0.0620    1.0000 </r>
       <r>    0.1997    1.0000 </r>
       <r>    0.2377    1.0000 </r>
       <r>    0.4609    1.0000 </r>
       <r>    0.5068    1.0000 </r>
       <r>    0.5814    1.0000 </r>
       <r>    2.3956    0.0000 </r>
       <r>    2.4610    0.0000 </r>
       <r>    2.5814    0.0000 </r>
       <r>    2.7043    0.0000 </r>
       <r>    7.9445    0.0000 </r>
       <r>    8.3974    0.0000 </r>
       <r>    8.5306    0.0000 </r>
       <r>    8.7983    0.0000 </r>
       <r>    9.0000    0.0000 </r>
       <r>    9.6879    0.0000 </r>
       <r>    9.7861    0.0000 </r>
       <r>    9.9208    0.0000 </r>
       <r>   10.0819    0.0000 </r>
       <r>   10.5512    0.0000 </r>
       <r>   10.7465    0.0000 </r>
       <r>   11.3631    0.0000 </r>
       <r>   11.5252    0.0000 </r>
       <r>   11.6352    0.0000 </r>
       <r>   11.7797    0.0000 </r>
       <r>   11.9417    0.0000 </r>
       <r>   11.9671    0.0000 </r>
       <r>   12.3071    0.0000 </r>
       <r>   12.7100    0.0000 </r>
       <r>   12.8071    0.0000 </r>
       <r>   13.4186    0.0000 </r>
       <r>   13.9783    0.0000 </r>
       <r>   14.5824    0.0000 </r>
       <r>   14.6749    0.0000 </r>
      </set>
      <set comment="kpoint 9">
       <r>  -43.2480    1.0000 </r>
       <r>  -43.2439    1.0000 </r>
       <r>  -43.2434    1.0000 </r>
       <r>  -43.2425    1.0000 </r>
       <r>  -43.2377    1.0000 </r>
       <r>  -43.2329    1.0000 </r>
       <r>  -14.2946    1.0000 </r>
       <r>  -14.0000    1.0000 </r>
       <r>  -13.7068    1.0000 </r>
       <r>  -13.6340    1.0000 </r>
       <r>  -13.6012    1.0000 </r>
       <r>  -13.5755    1.0000 </r>
       <r>   -4.2227    1.0000 </r>
       <r>   -3.8233    1.0000 </r>
       <r>   -3.5100    1.0000 </r>
       <r>   -3.4583    1.0000 </r>
       <r>   -3.3184    1.0000 </r>
       <r>   -3.2286    1.0000 </r>
       <r>   -3.0843    1.0000 </r>
       <r>   -2.8695    1.0000 </r>
       <r>   -2.5583    1.0000 </r>
       <r>   -2.2550    1.0000 </r>
       <r>   -2.2070    1.0000 </r>
       <r>   -1.7925    1.0000 </r>
       <r>   -1.6342    1.0000 </r>
       <r>   -1.4406    1.0000 </r>
       <r>   -1.1990    1.0000 </r>
       <r>   -1.1336    1.0000 </r>
       <r>   -0.9100    1.0000 </r>
       <r>   -0.7997    1.0000 </r>
       <r>   -0.0994    1.0000 </r>
       <r>    0.1800    1.0000 </r>
       <r>    0.1841    1.0000 </r>
       <r>    0.4417    1.0000 </r>
       <r>    0.4697    1.0000 </r>
       <r>    0.6447    1.0000 </r>
       <r>    2.4195    0.0000 </r>
       <r>    2.4552    0.0000 </r>
       <r>    2.5428    0.0000 </r>
       <r>    2.6485    0.0000 </r>
       <r>    8.1146    0.0000 </r>
       <r>    8.2801    0.0000 </r>
       <r>    8.6910    0.0000 </r>
       <r>    8.9711    0.0000 </r>
       <r>    9.1671    0.0000 </r>
       <r>    9.5437    0.0000 </r>
       <r>    9.6624    0.0000 </r>
       <r>   10.0026    0.0000 </r>
       <r>   10.2173    0.0000 </r>
       <r>   10.4451    0.0000 </r>
       <r>   10.6571    0.0000 </r>
       <r>   11.3502    0.0000 </r>
       <r>   11.4192    0.0000 </r>
       <r>   11.5704    0.0000 </r>
       <r>   11.6727    0.0000 </r>
       <r>   12.0038    0.0000 </r>
       <r>   12.0798    0.0000 </r>
       <r>   12.1713    0.0000 </r>
       <r>   12.6150    0.0000 </r>
       <r>   12.9806    0.0000 </r>
       <r>   13.2413    0.0000 </r>
       <r>   13.4657    0.0000 </r>
       <r>   14.0722    0.0000 </r>
       <r>   14.4402    0.0000 </r>
      </set>
      <set comment="kpoint 10">
       <r>  -43.2474    1.0000 </r>
       <r>  -43.2460    1.0000 </r>
       <r>  -43.2447    1.0000 </r>
       <r>  -43.2418    1.0000 </r>
       <r>  -43.2351    1.0000 </r>
       <r>  -43.2334    1.0000 </r>
       <r>  -14.5417    1.0000 </r>
       <r>  -13.7431    1.0000 </r>
       <r>  -13.7189    1.0000 </r>
       <r>  -13.6631    1.0000 </r>
       <r>  -13.5482    1.0000 </r>
       <r>  -13.5449    1.0000 </r>
       <r>   -4.3261    1.0000 </r>
       <r>   -4.0058    1.0000 </r>
       <r>   -3.4877    1.0000 </r>
       <r>   -3.4583    1.0000 </r>
       <r>   -3.4488    1.0000 </r>
       <r>   -3.2009    1.0000 </r>
       <r>   -3.0142    1.0000 </r>
       <r>   -2.9679    1.0000 </r>
       <r>   -2.8362    1.0000 </r>
       <r>   -2.2289    1.0000 </r>
       <r>   -1.9055    1.0000 </r>
       <r>   -1.8907    1.0000 </r>
       <r>   -1.5674    1.0000 </r>
       <r>   -1.2115    1.0000 </r>
       <r>   -1.1670    1.0000 </r>
       <r>   -1.0774    1.0000 </r>
       <r>   -0.8412    1.0000 </r>
       <r>   -0.6450    1.0000 </r>
       <r>   -0.0436    1.0000 </r>
       <r>    0.1447    1.0000 </r>
       <r>    0.1844    1.0000 </r>
       <r>    0.3419    1.0000 </r>
       <r>    0.4969    1.0000 </r>
       <r>    0.5235    1.0000 </r>
       <r>    2.4529    0.0000 </r>
       <r>    2.4763    0.0000 </r>
       <r>    2.5708    0.0000 </r>
       <r>    2.6852    0.0000 </r>
       <r>    6.9734    0.0000 </r>
       <r>    8.4313    0.0000 </r>
       <r>    8.5850    0.0000 </r>
       <r>    9.0488    0.0000 </r>
       <r>    9.0857    0.0000 </r>
       <r>    9.4472    0.0000 </r>
       <r>   10.2245    0.0000 </r>
       <r>   10.2314    0.0000 </r>
       <r>   10.4577    0.0000 </r>
       <r>   10.6038    0.0000 </r>
       <r>   10.7424    0.0000 </r>
       <r>   11.3427    0.0000 </r>
       <r>   11.5429    0.0000 </r>
       <r>   11.7036    0.0000 </r>
       <r>   11.8143    0.0000 </r>
       <r>   11.9570    0.0000 </r>
       <r>   12.1569    0.0000 </r>
       <r>   12.4180    0.0000 </r>
       <r>   12.7835    0.0000 </r>
       <r>   13.0567    0.0000 </r>
       <r>   13.3732    0.0000 </r>
       <r>   13.4498    0.0000 </r>
       <r>   14.0523    0.0000 </r>
       <r>   14.0849    0.0000 </r>
      </set>
      <set comment="kpoint 11">
       <r>  -43.2474    1.0000 </r>
       <r>  -43.2460    1.0000 </r>
       <r>  -43.2447    1.0000 </r>
       <r>  -43.2418    1.0000 </r>
       <r>  -43.2351    1.0000 </r>
       <r>  -43.2334    1.0000 </r>
       <r>  -14.4961    1.0000 </r>
       <r>  -13.7812    1.0000 </r>
       <r>  -13.7527    1.0000 </r>
       <r>  -13.6693    1.0000 </r>
       <r>  -13.5382    1.0000 </r>
       <r>  -13.5375    1.0000 </r>
       <r>   -4.3065    1.0000 </r>
       <r>   -3.7656    1.0000 </r>
       <r>   -3.4884    1.0000 </r>
       <r>   -3.3911    1.0000 </r>
       <r>   -3.3830    1.0000 </r>
       <r>   -3.2238    1.0000 </r>
       <r>   -3.0399    1.0000 </r>
       <r>   -3.0299    1.0000 </r>
       <r>   -2.7876    1.0000 </r>
       <r>   -2.2353    1.0000 </r>
       <r>   -1.9604    1.0000 </r>
       <r>   -1.9560    1.0000 </r>
       <r>   -1.5184    1.0000 </r>
       <r>   -1.4239    1.0000 </r>
       <r>   -1.1861    1.0000 </r>
       <r>   -1.1191    1.0000 </r>
       <r>   -0.9279    1.0000 </r>
       <r>   -0.8826    1.0000 </r>
       <r>   -0.0496    1.0000 </r>
       <r>    0.1823    1.0000 </r>
       <r>    0.1855    1.0000 </r>
       <r>    0.4158    1.0000 </r>
       <r>    0.5143    1.0000 </r>
       <r>    0.5395    1.0000 </r>
       <r>    2.4617    0.0000 </r>
       <r>    2.5282    0.0000 </r>
       <r>    2.5726    0.0000 </r>
       <r>    2.6980    0.0000 </r>
       <r>    8.2451    0.0000 </r>
       <r>    8.3164    0.0000 </r>
       <r>    8.4558    0.0000 </r>
       <r>    8.9741    0.0000 </r>
       <r>    9.3192    0.0000 </r>
       <r>    9.3958    0.0000 </r>
       <r>    9.4299    0.0000 </r>
       <r>   10.2758    0.0000 </r>
       <r>   10.4467    0.0000 </r>
       <r>   10.6870    0.0000 </r>
       <r>   10.8438    0.0000 </r>
       <r>   11.3389    0.0000 </r>
       <r>   11.6133    0.0000 </r>
       <r>   11.6821    0.0000 </r>
       <r>   11.9570    0.0000 </r>
       <r>   12.0247    0.0000 </r>
       <r>   12.1324    0.0000 </r>
       <r>   12.2767    0.0000 </r>
       <r>   12.3564    0.0000 </r>
       <r>   12.5623    0.0000 </r>
       <r>   12.8984    0.0000 </r>
       <r>   13.5677    0.0000 </r>
       <r>   13.9942    0.0000 </r>
       <r>   14.3513    0.0000 </r>
      </set>
      <set comment="kpoint 12">
       <r>  -43.2480    1.0000 </r>
       <r>  -43.2439    1.0000 </r>
       <r>  -43.2434    1.0000 </r>
       <r>  -43.2425    1.0000 </r>
       <r>  -43.2377    1.0000 </r>
       <r>  -43.2329    1.0000 </r>
       <r>  -14.2624    1.0000 </r>
       <r>  -13.9987    1.0000 </r>
       <r>  -13.7198    1.0000 </r>
       <r>  -13.6808    1.0000 </r>
       <r>  -13.5970    1.0000 </r>
       <r>  -13.5601    1.0000 </r>
       <r>   -4.2494    1.0000 </r>
       <r>   -3.7511    1.0000 </r>
       <r>   -3.5695    1.0000 </r>
       <r>   -3.4907    1.0000 </r>
       <r>   -3.3079    1.0000 </r>
       <r>   -3.1446    1.0000 </r>
       <r>   -3.0771    1.0000 </r>
       <r>   -2.8445    1.0000 </r>
       <r>   -2.6298    1.0000 </r>
       <r>   -2.2534    1.0000 </r>
       <r>   -2.0774    1.0000 </r>
       <r>   -1.8029    1.0000 </r>
       <r>   -1.6973    1.0000 </r>
       <r>   -1.5061    1.0000 </r>
       <r>   -1.2156    1.0000 </r>
       <r>   -1.0862    1.0000 </r>
       <r>   -0.9007    1.0000 </r>
       <r>   -0.8555    1.0000 </r>
       <r>   -0.0990    1.0000 </r>
       <r>    0.1692    1.0000 </r>
       <r>    0.2435    1.0000 </r>
       <r>    0.4127    1.0000 </r>
       <r>    0.5016    1.0000 </r>
       <r>    0.6199    1.0000 </r>
       <r>    2.4044    0.0000 </r>
       <r>    2.5560    0.0000 </r>
       <r>    2.5902    0.0000 </r>
       <r>    2.6690    0.0000 </r>
       <r>    7.7319    0.0000 </r>
       <r>    8.2127    0.0000 </r>
       <r>    8.3383    0.0000 </r>
       <r>    8.6542    0.0000 </r>
       <r>    8.9517    0.0000 </r>
       <r>    9.4894    0.0000 </r>
       <r>    9.7674    0.0000 </r>
       <r>    9.9531    0.0000 </r>
       <r>   10.3939    0.0000 </r>
       <r>   10.6716    0.0000 </r>
       <r>   10.9797    0.0000 </r>
       <r>   11.0378    0.0000 </r>
       <r>   11.2744    0.0000 </r>
       <r>   11.4614    0.0000 </r>
       <r>   11.8352    0.0000 </r>
       <r>   11.9531    0.0000 </r>
       <r>   12.3183    0.0000 </r>
       <r>   12.6207    0.0000 </r>
       <r>   12.7396    0.0000 </r>
       <r>   12.9816    0.0000 </r>
       <r>   13.5103    0.0000 </r>
       <r>   14.0158    0.0000 </r>
       <r>   14.2150    0.0000 </r>
       <r>   14.6360    0.0000 </r>
      </set>
      <set comment="kpoint 13">
       <r>  -43.2478    1.0000 </r>
       <r>  -43.2446    1.0000 </r>
       <r>  -43.2443    1.0000 </r>
       <r>  -43.2422    1.0000 </r>
       <r>  -43.2364    1.0000 </r>
       <r>  -43.2331    1.0000 </r>
       <r>  -14.4010    1.0000 </r>
       <r>  -13.8543    1.0000 </r>
       <r>  -13.7221    1.0000 </r>
       <r>  -13.6910    1.0000 </r>
       <r>  -13.5779    1.0000 </r>
       <r>  -13.5518    1.0000 </r>
       <r>   -4.2945    1.0000 </r>
       <r>   -3.8447    1.0000 </r>
       <r>   -3.5352    1.0000 </r>
       <r>   -3.4757    1.0000 </r>
       <r>   -3.3492    1.0000 </r>
       <r>   -3.1671    1.0000 </r>
       <r>   -3.0504    1.0000 </r>
       <r>   -2.9725    1.0000 </r>
       <r>   -2.5953    1.0000 </r>
       <r>   -2.2542    1.0000 </r>
       <r>   -2.0030    1.0000 </r>
       <r>   -1.7454    1.0000 </r>
       <r>   -1.6213    1.0000 </r>
       <r>   -1.3815    1.0000 </r>
       <r>   -1.3016    1.0000 </r>
       <r>   -1.1511    1.0000 </r>
       <r>   -0.9146    1.0000 </r>
       <r>   -0.8036    1.0000 </r>
       <r>   -0.0436    1.0000 </r>
       <r>    0.1778    1.0000 </r>
       <r>    0.2106    1.0000 </r>
       <r>    0.4240    1.0000 </r>
       <r>    0.4827    1.0000 </r>
       <r>    0.5773    1.0000 </r>
       <r>    2.4290    0.0000 </r>
       <r>    2.5236    0.0000 </r>
       <r>    2.5544    0.0000 </r>
       <r>    2.6870    0.0000 </r>
       <r>    7.9067    0.0000 </r>
       <r>    7.9663    0.0000 </r>
       <r>    8.4863    0.0000 </r>
       <r>    8.6866    0.0000 </r>
       <r>    9.0422    0.0000 </r>
       <r>    9.3701    0.0000 </r>
       <r>    9.9312    0.0000 </r>
       <r>    9.9490    0.0000 </r>
       <r>   10.1035    0.0000 </r>
       <r>   10.4600    0.0000 </r>
       <r>   11.1251    0.0000 </r>
       <r>   11.2650    0.0000 </r>
       <r>   11.3600    0.0000 </r>
       <r>   11.6334    0.0000 </r>
       <r>   11.7880    0.0000 </r>
       <r>   12.0366    0.0000 </r>
       <r>   12.2717    0.0000 </r>
       <r>   12.5193    0.0000 </r>
       <r>   12.7969    0.0000 </r>
       <r>   13.1378    0.0000 </r>
       <r>   13.3599    0.0000 </r>
       <r>   13.8118    0.0000 </r>
       <r>   14.1441    0.0000 </r>
       <r>   14.8617    0.0000 </r>
      </set>
      <set comment="kpoint 14">
       <r>  -43.2473    1.0000 </r>
       <r>  -43.2466    1.0000 </r>
       <r>  -43.2449    1.0000 </r>
       <r>  -43.2416    1.0000 </r>
       <r>  -43.2342    1.0000 </r>
       <r>  -43.2338    1.0000 </r>
       <r>  -14.5630    1.0000 </r>
       <r>  -13.7966    1.0000 </r>
       <r>  -13.6764    1.0000 </r>
       <r>  -13.6509    1.0000 </r>
       <r>  -13.5381    1.0000 </r>
       <r>  -13.5296    1.0000 </r>
       <r>   -4.3360    1.0000 </r>
       <r>   -3.7762    1.0000 </r>
       <r>   -3.4747    1.0000 </r>
       <r>   -3.4088    1.0000 </r>
       <r>   -3.3892    1.0000 </r>
       <r>   -3.3261    1.0000 </r>
       <r>   -2.9905    1.0000 </r>
       <r>   -2.9588    1.0000 </r>
       <r>   -2.9192    1.0000 </r>
       <r>   -2.2161    1.0000 </r>
       <r>   -2.1298    1.0000 </r>
       <r>   -2.0386    1.0000 </r>
       <r>   -1.4666    1.0000 </r>
       <r>   -1.3465    1.0000 </r>
       <r>   -1.0897    1.0000 </r>
       <r>   -0.9784    1.0000 </r>
       <r>   -0.8810    1.0000 </r>
       <r>   -0.7425    1.0000 </r>
       <r>   -0.1044    1.0000 </r>
       <r>    0.1878    1.0000 </r>
       <r>    0.1927    1.0000 </r>
       <r>    0.3858    1.0000 </r>
       <r>    0.4745    1.0000 </r>
       <r>    0.4770    1.0000 </r>
       <r>    2.4498    0.0000 </r>
       <r>    2.4897    0.0000 </r>
       <r>    2.6424    0.0000 </r>
       <r>    2.7187    0.0000 </r>
       <r>    7.6316    0.0000 </r>
       <r>    8.2450    0.0000 </r>
       <r>    8.4272    0.0000 </r>
       <r>    9.2184    0.0000 </r>
       <r>    9.5562    0.0000 </r>
       <r>    9.6444    0.0000 </r>
       <r>    9.6922    0.0000 </r>
       <r>   10.2341    0.0000 </r>
       <r>   10.4507    0.0000 </r>
       <r>   10.7203    0.0000 </r>
       <r>   10.7933    0.0000 </r>
       <r>   11.1289    0.0000 </r>
       <r>   11.3817    0.0000 </r>
       <r>   11.5307    0.0000 </r>
       <r>   11.8246    0.0000 </r>
       <r>   11.9204    0.0000 </r>
       <r>   12.0157    0.0000 </r>
       <r>   12.7963    0.0000 </r>
       <r>   12.8806    0.0000 </r>
       <r>   13.0195    0.0000 </r>
       <r>   13.2438    0.0000 </r>
       <r>   13.4590    0.0000 </r>
       <r>   13.6210    0.0000 </r>
       <r>   14.2390    0.0000 </r>
      </set>
      <set comment="kpoint 15">
       <r>  -43.2483    1.0000 </r>
       <r>  -43.2435    1.0000 </r>
       <r>  -43.2431    1.0000 </r>
       <r>  -43.2415    1.0000 </r>
       <r>  -43.2393    1.0000 </r>
       <r>  -43.2327    1.0000 </r>
       <r>  -14.1831    1.0000 </r>
       <r>  -14.0586    1.0000 </r>
       <r>  -13.7485    1.0000 </r>
       <r>  -13.6360    1.0000 </r>
       <r>  -13.6135    1.0000 </r>
       <r>  -13.5874    1.0000 </r>
       <r>   -4.0597    1.0000 </r>
       <r>   -3.8379    1.0000 </r>
       <r>   -3.6407    1.0000 </r>
       <r>   -3.4828    1.0000 </r>
       <r>   -3.3716    1.0000 </r>
       <r>   -3.0977    1.0000 </r>
       <r>   -3.0838    1.0000 </r>
       <r>   -2.9567    1.0000 </r>
       <r>   -2.7862    1.0000 </r>
       <r>   -2.0792    1.0000 </r>
       <r>   -1.8846    1.0000 </r>
       <r>   -1.6557    1.0000 </r>
       <r>   -1.6218    1.0000 </r>
       <r>   -1.5948    1.0000 </r>
       <r>   -1.3122    1.0000 </r>
       <r>   -1.0960    1.0000 </r>
       <r>   -0.9993    1.0000 </r>
       <r>   -0.9545    1.0000 </r>
       <r>   -0.0680    1.0000 </r>
       <r>    0.2776    1.0000 </r>
       <r>    0.3135    1.0000 </r>
       <r>    0.4460    1.0000 </r>
       <r>    0.4611    1.0000 </r>
       <r>    0.5228    1.0000 </r>
       <r>    2.4187    0.0000 </r>
       <r>    2.5132    0.0000 </r>
       <r>    2.5583    0.0000 </r>
       <r>    2.7307    0.0000 </r>
       <r>    7.9159    0.0000 </r>
       <r>    8.0120    0.0000 </r>
       <r>    8.2438    0.0000 </r>
       <r>    8.4398    0.0000 </r>
       <r>    8.8752    0.0000 </r>
       <r>    9.2564    0.0000 </r>
       <r>    9.7148    0.0000 </r>
       <r>    9.8801    0.0000 </r>
       <r>   10.1122    0.0000 </r>
       <r>   10.5920    0.0000 </r>
       <r>   11.1104    0.0000 </r>
       <r>   11.5524    0.0000 </r>
       <r>   11.6123    0.0000 </r>
       <r>   11.8123    0.0000 </r>
       <r>   12.1646    0.0000 </r>
       <r>   12.2185    0.0000 </r>
       <r>   12.2541    0.0000 </r>
       <r>   12.5007    0.0000 </r>
       <r>   12.6465    0.0000 </r>
       <r>   13.0221    0.0000 </r>
       <r>   13.0765    0.0000 </r>
       <r>   14.3019    0.0000 </r>
       <r>   14.8554    0.0000 </r>
       <r>   15.0070    0.0000 </r>
      </set>
      <set comment="kpoint 16">
       <r>  -43.2479    1.0000 </r>
       <r>  -43.2442    1.0000 </r>
       <r>  -43.2441    1.0000 </r>
       <r>  -43.2424    1.0000 </r>
       <r>  -43.2366    1.0000 </r>
       <r>  -43.2332    1.0000 </r>
       <r>  -14.3467    1.0000 </r>
       <r>  -13.9129    1.0000 </r>
       <r>  -13.7164    1.0000 </r>
       <r>  -13.6790    1.0000 </r>
       <r>  -13.5881    1.0000 </r>
       <r>  -13.5661    1.0000 </r>
       <r>   -4.2845    1.0000 </r>
       <r>   -3.7545    1.0000 </r>
       <r>   -3.5699    1.0000 </r>
       <r>   -3.4235    1.0000 </r>
       <r>   -3.2981    1.0000 </r>
       <r>   -3.1817    1.0000 </r>
       <r>   -3.0941    1.0000 </r>
       <r>   -2.7956    1.0000 </r>
       <r>   -2.6628    1.0000 </r>
       <r>   -2.3096    1.0000 </r>
       <r>   -1.9518    1.0000 </r>
       <r>   -1.8561    1.0000 </r>
       <r>   -1.7121    1.0000 </r>
       <r>   -1.4650    1.0000 </r>
       <r>   -1.3049    1.0000 </r>
       <r>   -1.1857    1.0000 </r>
       <r>   -0.8267    1.0000 </r>
       <r>   -0.7696    1.0000 </r>
       <r>   -0.1199    1.0000 </r>
       <r>    0.1440    1.0000 </r>
       <r>    0.1884    1.0000 </r>
       <r>    0.4423    1.0000 </r>
       <r>    0.5240    1.0000 </r>
       <r>    0.6147    1.0000 </r>
       <r>    2.3927    0.0000 </r>
       <r>    2.4664    0.0000 </r>
       <r>    2.5348    0.0000 </r>
       <r>    2.6402    0.0000 </r>
       <r>    8.3032    0.0000 </r>
       <r>    8.4533    0.0000 </r>
       <r>    8.6862    0.0000 </r>
       <r>    9.0333    0.0000 </r>
       <r>    9.0947    0.0000 </r>
       <r>    9.4291    0.0000 </r>
       <r>    9.8488    0.0000 </r>
       <r>    9.9988    0.0000 </r>
       <r>   10.2157    0.0000 </r>
       <r>   10.3876    0.0000 </r>
       <r>   10.6042    0.0000 </r>
       <r>   10.9298    0.0000 </r>
       <r>   11.2258    0.0000 </r>
       <r>   11.5238    0.0000 </r>
       <r>   11.6835    0.0000 </r>
       <r>   11.8544    0.0000 </r>
       <r>   12.2138    0.0000 </r>
       <r>   12.3384    0.0000 </r>
       <r>   12.4061    0.0000 </r>
       <r>   12.7289    0.0000 </r>
       <r>   13.2524    0.0000 </r>
       <r>   13.9965    0.0000 </r>
       <r>   14.1577    0.0000 </r>
       <r>   14.3354    0.0000 </r>
      </set>
      <set comment="kpoint 17">
       <r>  -43.2478    1.0000 </r>
       <r>  -43.2446    1.0000 </r>
       <r>  -43.2443    1.0000 </r>
       <r>  -43.2422    1.0000 </r>
       <r>  -43.2364    1.0000 </r>
       <r>  -43.2331    1.0000 </r>
       <r>  -14.3869    1.0000 </r>
       <r>  -13.8665    1.0000 </r>
       <r>  -13.7397    1.0000 </r>
       <r>  -13.6870    1.0000 </r>
       <r>  -13.5632    1.0000 </r>
       <r>  -13.5584    1.0000 </r>
       <r>   -4.2691    1.0000 </r>
       <r>   -3.7712    1.0000 </r>
       <r>   -3.5074    1.0000 </r>
       <r>   -3.4421    1.0000 </r>
       <r>   -3.3636    1.0000 </r>
       <r>   -3.1576    1.0000 </r>
[...]
        <r>  0.0012  0.0032  0.0076  0.0153  0.0000  0.0000  0.0000  0.0000  0.0000 </r>
        <r>  0.0012  0.0032  0.0076  0.0154  0.0000  0.0000  0.0000  0.0000  0.0000 </r>
        <r>  0.0000  0.0000  0.0000  0.0426  0.0000  0.0000  0.0000  0.0000  0.0000 </r>
        <r>  0.0000  0.0000  0.0000  0.0426  0.0000  0.0000  0.0000  0.0000  0.0000 </r>
        <r>  0.0012  0.0032  0.0076  0.0153  0.0000  0.0000  0.0000  0.0000  0.0000 </r>
        <r>  0.0012  0.0032  0.0076  0.0154  0.0000  0.0000  0.0000  0.0000  0.0000 </r>
       </set>
       <set comment="band 41">
        <r>  0.0279  0.0005  0.0010  0.0002  0.0000  0.0024  0.0002  0.0000  0.0033 </r>
        <r>  0.0279  0.0005  0.0010  0.0002  0.0000  0.0024  0.0002  0.0000  0.0033 </r>
        <r>  0.0208  0.0082  0.0094  0.0000  0.0000  0.0000  0.0000  0.0000  0.0000 </r>
        <r>  0.0208  0.0082  0.0094  0.0000  0.0000  0.0000  0.0000  0.0000  0.0000 </r>
        <r>  0.0241  0.0050  0.0081  0.0000  0.0000  0.0000  0.0000  0.0000  0.0000 </r>
        <r>  0.0241  0.0050  0.0081  0.0000  0.0000  0.0000  0.0000  0.0000  0.0000 </r>
        <r>  0.0208  0.0082  0.0094  0.0000  0.0000  0.0000  0.0000  0.0000  0.0000 </r>
        <r>  0.0208  0.0082  0.0094  0.0000  0.0000  0.0000  0.0000  0.0000  0.0000 </r>
       </set>
       <set comment="band 42">
        <r>  0.0841  0.0008  0.0001  0.0049  0.0001  0.0003  0.0093  0.0006  0.0015 </r>
        <r>  0.0841  0.0008  0.0001  0.0049  0.0001  0.0003  0.0093  0.0006  0.0015 </r>
        <r>  0.0036  0.0052  0.0013  0.0010  0.0000  0.0000  0.0000  0.0000  0.0000 </r>
        <r>  0.0036  0.0052  0.0013  0.0010  0.0000  0.0000  0.0000  0.0000  0.0000 </r>
        <r>  0.0000  0.0000  0.0000  0.0054  0.0000  0.0000  0.0000  0.0000  0.0000 </r>
        <r>  0.0000  0.0000  0.0000  0.0054  0.0000  0.0000  0.0000  0.0000  0.0000 </r>
        <r>  0.0036  0.0052  0.0013  0.0010  0.0000  0.0000  0.0000  0.0000  0.0000 </r>
        <r>  0.0036  0.0052  0.0013  0.0010  0.0000  0.0000  0.0000  0.0000  0.0000 </r>
       </set>
       <set comment="band 43">
        <r>  0.0140  0.0020  0.0021  0.0189  0.0005  0.0000  0.0001  0.0027  0.0008 </r>
        <r>  0.0140  0.0020  0.0021  0.0189  0.0005  0.0000  0.0001  0.0027  0.0008 </r>
        <r>  0.0062  0.0011  0.0004  0.0006  0.0000  0.0000  0.0000  0.0000  0.0000 </r>
        <r>  0.0062  0.0011  0.0004  0.0006  0.0000  0.0000  0.0000  0.0000  0.0000 </r>
        <r>  0.0036  0.0075  0.0002  0.0000  0.0000  0.0000  0.0000  0.0000  0.0000 </r>
        <r>  0.0036  0.0075  0.0002  0.0000  0.0000  0.0000  0.0000  0.0000  0.0000 </r>
        <r>  0.0062  0.0011  0.0004  0.0006  0.0000  0.0000  0.0000  0.0000  0.0000 </r>
        <r>  0.0062  0.0011  0.0004  0.0006  0.0000  0.0000  0.0000  0.0000  0.0000 </r>
       </set>
       <set comment="band 44">
        <r>  0.0006  0.0059  0.0271  0.0010  0.0000  0.0030  0.0008  0.0002  0.0000 </r>
        <r>  0.0006  0.0059  0.0271  0.0010  0.0000  0.0030  0.0008  0.0002  0.0000 </r>
        <r>  0.0070  0.0068  0.0028  0.0004  0.0000  0.0000  0.0000  0.0000  0.0000 </r>
        <r>  0.0070  0.0068  0.0028  0.0004  0.0000  0.0000  0.0000  0.0000  0.0000 </r>
        <r>  0.0203  0.0006  0.0014  0.0000  0.0000  0.0000  0.0000  0.0000  0.0000 </r>
        <r>  0.0203  0.0006  0.0014  0.0000  0.0000  0.0000  0.0000  0.0000  0.0000 </r>
        <r>  0.0070  0.0068  0.0028  0.0004  0.0000  0.0000  0.0000  0.0000  0.0000 </r>
        <r>  0.0070  0.0068  0.0028  0.0004  0.0000  0.0000  0.0000  0.0000  0.0000 </r>
       </set>
       <set comment="band 45">
        <r>  0.0183  0.0059  0.0114  0.0077  0.0000  0.0001  0.0001  0.0002  0.0001 </r>
        <r>  0.0183  0.0059  0.0114  0.0077  0.0000  0.0001  0.0001  0.0002  0.0001 </r>
        <r>  0.0066  0.0012  0.0000  0.0006  0.0000  0.0000  0.0000  0.0000  0.0000 </r>
        <r>  0.0066  0.0012  0.0000  0.0006  0.0000  0.0000  0.0000  0.0000  0.0000 </r>
        <r>  0.0103  0.0190  0.0067  0.0000  0.0000  0.0000  0.0000  0.0000  0.0000 </r>
        <r>  0.0103  0.0190  0.0067  0.0000  0.0000  0.0000  0.0000  0.0000  0.0000 </r>
        <r>  0.0066  0.0012  0.0000  0.0006  0.0000  0.0000  0.0000  0.0000  0.0000 </r>
        <r>  0.0066  0.0012  0.0000  0.0006  0.0000  0.0000  0.0000  0.0000  0.0000 </r>
       </set>
       <set comment="band 46">
        <r>  0.0196  0.0011  0.0000  0.0176  0.0002  0.0001  0.0055  0.0000  0.0106 </r>
        <r>  0.0196  0.0011  0.0000  0.0176  0.0002  0.0001  0.0055  0.0000  0.0106 </r>
        <r>  0.0089  0.0117  0.0016  0.0001  0.0000  0.0000  0.0000  0.0000  0.0000 </r>
        <r>  0.0089  0.0117  0.0016  0.0001  0.0000  0.0000  0.0000  0.0000  0.0000 </r>
        <r>  0.0000  0.0000  0.0000  0.0009  0.0000  0.0000  0.0000  0.0000  0.0000 </r>
        <r>  0.0000  0.0000  0.0000  0.0009  0.0000  0.0000  0.0000  0.0000  0.0000 </r>
        <r>  0.0089  0.0117  0.0016  0.0001  0.0000  0.0000  0.0000  0.0000  0.0000 </r>
        <r>  0.0089  0.0117  0.0016  0.0001  0.0000  0.0000  0.0000  0.0000  0.0000 </r>
       </set>
       <set comment="band 47">
        <r>  0.0151  0.0011  0.0032  0.0003  0.0005  0.0011  0.0092  0.0000  0.0067 </r>
        <r>  0.0151  0.0011  0.0032  0.0003  0.0005  0.0011  0.0092  0.0000  0.0067 </r>
        <r>  0.0045  0.0007  0.0174  0.0010  0.0000  0.0000  0.0000  0.0000  0.0000 </r>
        <r>  0.0045  0.0007  0.0174  0.0010  0.0000  0.0000  0.0000  0.0000  0.0000 </r>
        <r>  0.0029  0.0039  0.0175  0.0000  0.0000  0.0000  0.0000  0.0000  0.0000 </r>
        <r>  0.0029  0.0039  0.0175  0.0000  0.0000  0.0000  0.0000  0.0000  0.0000 </r>
        <r>  0.0045  0.0007  0.0174  0.0010  0.0000  0.0000  0.0000  0.0000  0.0000 </r>
        <r>  0.0045  0.0007  0.0174  0.0010  0.0000  0.0000  0.0000  0.0000  0.0000 </r>
       </set>
       <set comment="band 48">
        <r>  0.0351  0.0394  0.0025  0.0017  0.0009  0.0022  0.0001  0.0019  0.0001 </r>
        <r>  0.0351  0.0394  0.0025  0.0017  0.0009  0.0022  0.0001  0.0019  0.0001 </r>
        <r>  0.0026  0.0031  0.0034  0.0062  0.0000  0.0000  0.0000  0.0000  0.0000 </r>
        <r>  0.0026  0.0031  0.0034  0.0062  0.0000  0.0000  0.0000  0.0000  0.0000 </r>
        <r>  0.0000  0.0000  0.0000  0.0133  0.0000  0.0000  0.0000  0.0000  0.0000 </r>
        <r>  0.0000  0.0000  0.0000  0.0134  0.0000  0.0000  0.0000  0.0000  0.0000 </r>
        <r>  0.0026  0.0031  0.0034  0.0062  0.0000  0.0000  0.0000  0.0000  0.0000 </r>
        <r>  0.0026  0.0031  0.0034  0.0062  0.0000  0.0000  0.0000  0.0000  0.0000 </r>
       </set>
       <set comment="band 49">
        <r>  0.0258  0.0027  0.0001  0.0000  0.0271  0.0008  0.0115  0.0088  0.0006 </r>
        <r>  0.0258  0.0027  0.0001  0.0000  0.0271  0.0008  0.0115  0.0088  0.0006 </r>
        <r>  0.0008  0.0021  0.0009  0.0102  0.0000  0.0000  0.0000  0.0000  0.0000 </r>
        <r>  0.0008  0.0021  0.0009  0.0102  0.0000  0.0000  0.0000  0.0000  0.0000 </r>
        <r>  0.0003  0.0144  0.0001  0.0000  0.0000  0.0000  0.0000  0.0000  0.0000 </r>
        <r>  0.0003  0.0144  0.0001  0.0000  0.0000  0.0000  0.0000  0.0000  0.0000 </r>
        <r>  0.0008  0.0021  0.0009  0.0102  0.0000  0.0000  0.0000  0.0000  0.0000 </r>
        <r>  0.0008  0.0021  0.0009  0.0102  0.0000  0.0000  0.0000  0.0000  0.0000 </r>
       </set>
       <set comment="band 50">
        <r>  0.0022  0.0000  0.0002  0.0001  0.0036  0.0028  0.0218  0.0006  0.0120 </r>
        <r>  0.0022  0.0000  0.0002  0.0001  0.0036  0.0028  0.0218  0.0006  0.0120 </r>
        <r>  0.0001  0.0103  0.0005  0.0028  0.0000  0.0000  0.0000  0.0000  0.0000 </r>
        <r>  0.0001  0.0103  0.0005  0.0028  0.0000  0.0000  0.0000  0.0000  0.0000 </r>
        <r>  0.0000  0.0000  0.0000  0.0112  0.0000  0.0000  0.0000  0.0000  0.0000 </r>
        <r>  0.0000  0.0000  0.0000  0.0112  0.0000  0.0000  0.0000  0.0000  0.0000 </r>
        <r>  0.0001  0.0103  0.0005  0.0028  0.0000  0.0000  0.0000  0.0000  0.0000 </r>
        <r>  0.0001  0.0103  0.0005  0.0028  0.0000  0.0000  0.0000  0.0000  0.0000 </r>
       </set>
       <set comment="band 51">
        <r>  0.0250  0.0067  0.0041  0.0015  0.0029  0.0005  0.0009  0.0003  0.0002 </r>
        <r>  0.0250  0.0067  0.0040  0.0015  0.0029  0.0005  0.0009  0.0003  0.0002 </r>
        <r>  0.0012  0.0003  0.0031  0.0088  0.0000  0.0000  0.0000  0.0000  0.0000 </r>
        <r>  0.0012  0.0003  0.0031  0.0088  0.0000  0.0000  0.0000  0.0000  0.0000 </r>
        <r>  0.0008  0.0002  0.0029  0.0000  0.0000  0.0000  0.0000  0.0000  0.0000 </r>
        <r>  0.0008  0.0002  0.0029  0.0000  0.0000  0.0000  0.0000  0.0000  0.0000 </r>
        <r>  0.0012  0.0003  0.0031  0.0088  0.0000  0.0000  0.0000  0.0000  0.0000 </r>
        <r>  0.0012  0.0003  0.0031  0.0088  0.0000  0.0000  0.0000  0.0000  0.0000 </r>
       </set>
       <set comment="band 52">
        <r>  0.0047  0.0567  0.0017  0.0003  0.0003  0.0038  0.0016  0.0000  0.0004 </r>
        <r>  0.0047  0.0567  0.0017  0.0003  0.0003  0.0038  0.0016  0.0000  0.0004 </r>
        <r>  0.0006  0.0072  0.0002  0.0030  0.0000  0.0000  0.0000  0.0000  0.0000 </r>
        <r>  0.0006  0.0072  0.0002  0.0030  0.0000  0.0000  0.0000  0.0000  0.0000 </r>
        <r>  0.0003  0.0012  0.0027  0.0000  0.0000  0.0000  0.0000  0.0000  0.0000 </r>
        <r>  0.0003  0.0012  0.0027  0.0000  0.0000  0.0000  0.0000  0.0000  0.0000 </r>
        <r>  0.0006  0.0072  0.0002  0.0030  0.0000  0.0000  0.0000  0.0000  0.0000 </r>
        <r>  0.0006  0.0072  0.0002  0.0030  0.0000  0.0000  0.0000  0.0000  0.0000 </r>
       </set>
       <set comment="band 53">
        <r>  0.0001  0.0001  0.0057  0.0001  0.0048  0.0004  0.0002  0.0053  0.0013 </r>
        <r>  0.0001  0.0001  0.0050  0.0000  0.0048  0.0004  0.0002  0.0053  0.0013 </r>
        <r>  0.0003  0.0020  0.0010  0.0129  0.0000  0.0000  0.0000  0.0000  0.0000 </r>
        <r>  0.0003  0.0020  0.0010  0.0129  0.0000  0.0000  0.0000  0.0000  0.0000 </r>
        <r>  0.0025  0.0040  0.0106  0.0000  0.0000  0.0000  0.0000  0.0000  0.0000 </r>
        <r>  0.0025  0.0040  0.0106  0.0000  0.0000  0.0000  0.0000  0.0000  0.0000 </r>
        <r>  0.0003  0.0019  0.0010  0.0129  0.0000  0.0000  0.0000  0.0000  0.0000 </r>
        <r>  0.0003  0.0019  0.0011  0.0129  0.0000  0.0000  0.0000  0.0000  0.0000 </r>
       </set>
       <set comment="band 54">
        <r>  0.0013  0.0036  0.0367  0.0385  0.0000  0.0005  0.0002  0.0000  0.0000 </r>
        <r>  0.0013  0.0035  0.0374  0.0385  0.0000  0.0006  0.0002  0.0000  0.0000 </r>
        <r>  0.0002  0.0011  0.0040  0.0004  0.0000  0.0000  0.0000  0.0000  0.0000 </r>
        <r>  0.0002  0.0011  0.0040  0.0005  0.0000  0.0000  0.0000  0.0000  0.0000 </r>
        <r>  0.0000  0.0000  0.0000  0.0143  0.0000  0.0000  0.0000  0.0000  0.0000 </r>
        <r>  0.0000  0.0000  0.0000  0.0143  0.0000  0.0000  0.0000  0.0000  0.0000 </r>
        <r>  0.0002  0.0012  0.0039  0.0005  0.0000  0.0000  0.0000  0.0000  0.0000 </r>
        <r>  0.0002  0.0012  0.0039  0.0005  0.0000  0.0000  0.0000  0.0000  0.0000 </r>
       </set>
       <set comment="band 55">
        <r>  0.0016  0.0010  0.0083  0.0214  0.0002  0.0019  0.0000  0.0033  0.0112 </r>
        <r>  0.0016  0.0010  0.0082  0.0213  0.0002  0.0019  0.0000  0.0033  0.0112 </r>
        <r>  0.0002  0.0072  0.0019  0.0016  0.0000  0.0000  0.0000  0.0000  0.0000 </r>
        <r>  0.0002  0.0072  0.0019  0.0016  0.0000  0.0000  0.0000  0.0000  0.0000 </r>
        <r>  0.0000  0.0000  0.0000  0.0075  0.0000  0.0000  0.0000  0.0000  0.0000 </r>
        <r>  0.0000  0.0000  0.0000  0.0075  0.0000  0.0000  0.0000  0.0000  0.0000 </r>
        <r>  0.0002  0.0072  0.0019  0.0016  0.0000  0.0000  0.0000  0.0000  0.0000 </r>
        <r>  0.0002  0.0072  0.0019  0.0016  0.0000  0.0000  0.0000  0.0000  0.0000 </r>
       </set>
       <set comment="band 56">
        <r>  0.0030  0.0004  0.0204  0.0030  0.0041  0.0102  0.0016  0.0000  0.0098 </r>
        <r>  0.0029  0.0004  0.0203  0.0030  0.0040  0.0102  0.0016  0.0000  0.0097 </r>
        <r>  0.0000  0.0035  0.0013  0.0107  0.0000  0.0000  0.0000  0.0000  0.0000 </r>
        <r>  0.0000  0.0035  0.0013  0.0107  0.0000  0.0000  0.0000  0.0000  0.0000 </r>
        <r>  0.0003  0.0208  0.0054  0.0000  0.0000  0.0000  0.0000  0.0000  0.0000 </r>
        <r>  0.0003  0.0208  0.0054  0.0000  0.0000  0.0000  0.0000  0.0000  0.0000 </r>
        <r>  0.0000  0.0035  0.0013  0.0107  0.0000  0.0000  0.0000  0.0000  0.0000 </r>
        <r>  0.0000  0.0035  0.0013  0.0107  0.0000  0.0000  0.0000  0.0000  0.0000 </r>
       </set>
       <set comment="band 57">
        <r>  0.0203  0.0141  0.0004  0.0080  0.0045  0.0000  0.0089  0.0040  0.0020 </r>
        <r>  0.0203  0.0140  0.0004  0.0080  0.0045  0.0000  0.0089  0.0040  0.0020 </r>
        <r>  0.0038  0.0086  0.0099  0.0072  0.0000  0.0000  0.0000  0.0000  0.0000 </r>
        <r>  0.0038  0.0086  0.0099  0.0072  0.0000  0.0000  0.0000  0.0000  0.0000 </r>
        <r>  0.0000  0.0000  0.0000  0.0294  0.0000  0.0000  0.0000  0.0000  0.0000 </r>
        <r>  0.0000  0.0000  0.0000  0.0294  0.0000  0.0000  0.0000  0.0000  0.0000 </r>
        <r>  0.0038  0.0086  0.0099  0.0072  0.0000  0.0000  0.0000  0.0000  0.0000 </r>
        <r>  0.0038  0.0086  0.0099  0.0072  0.0000  0.0000  0.0000  0.0000  0.0000 </r>
       </set>
       <set comment="band 58">
        <r>  0.0059  0.0010  0.0167  0.0121  0.0012  0.0119  0.0011  0.0017  0.0038 </r>
        <r>  0.0060  0.0010  0.0167  0.0122  0.0012  0.0118  0.0011  0.0017  0.0038 </r>
        <r>  0.0003  0.0149  0.0116  0.0049  0.0000  0.0000  0.0000  0.0000  0.0000 </r>
        <r>  0.0003  0.0149  0.0116  0.0049  0.0000  0.0000  0.0000  0.0000  0.0000 </r>
        <r>  0.0000  0.0000  0.0000  0.0231  0.0000  0.0000  0.0000  0.0000  0.0000 </r>
        <r>  0.0000  0.0000  0.0000  0.0231  0.0000  0.0000  0.0000  0.0000  0.0000 </r>
        <r>  0.0003  0.0149  0.0115  0.0049  0.0000  0.0000  0.0000  0.0000  0.0000 </r>
        <r>  0.0003  0.0149  0.0116  0.0049  0.0000  0.0000  0.0000  0.0000  0.0000 </r>
       </set>
       <set comment="band 59">
        <r>  0.0000  0.0016  0.0001  0.0087  0.0029  0.0021  0.0034  0.0038  0.0041 </r>
        <r>  0.0000  0.0016  0.0001  0.0087  0.0029  0.0021  0.0034  0.0038  0.0041 </r>
        <r>  0.0002  0.0021  0.0096  0.0205  0.0000  0.0000  0.0000  0.0000  0.0000 </r>
        <r>  0.0002  0.0021  0.0096  0.0205  0.0000  0.0000  0.0000  0.0000  0.0000 </r>
        <r>  0.0015  0.0092  0.0067  0.0000  0.0000  0.0000  0.0000  0.0000  0.0000 </r>
        <r>  0.0015  0.0092  0.0067  0.0000  0.0000  0.0000  0.0000  0.0000  0.0000 </r>
        <r>  0.0002  0.0021  0.0096  0.0205  0.0000  0.0000  0.0000  0.0000  0.0000 </r>
        <r>  0.0002  0.0021  0.0096  0.0205  0.0000  0.0000  0.0000  0.0000  0.0000 </r>
       </set>
       <set comment="band 60">
        <r>  0.0149  0.0003  0.0006  0.0007  0.0004  0.0033  0.0218  0.0024  0.0069 </r>
        <r>  0.0149  0.0003  0.0006  0.0007  0.0004  0.0033  0.0218  0.0024  0.0069 </r>
        <r>  0.0002  0.0009  0.0093  0.0025  0.0000  0.0000  0.0000  0.0000  0.0000 </r>
        <r>  0.0002  0.0009  0.0093  0.0025  0.0000  0.0000  0.0000  0.0000  0.0000 </r>
        <r>  0.0009  0.0054  0.0126  0.0000  0.0000  0.0000  0.0000  0.0000  0.0000 </r>
        <r>  0.0009  0.0054  0.0126  0.0000  0.0000  0.0000  0.0000  0.0000  0.0000 </r>
        <r>  0.0002  0.0009  0.0093  0.0025  0.0000  0.0000  0.0000  0.0000  0.0000 </r>
        <r>  0.0002  0.0009  0.0093  0.0025  0.0000  0.0000  0.0000  0.0000  0.0000 </r>
       </set>
       <set comment="band 61">
        <r>  0.0025  0.0011  0.0014  0.0072  0.0009  0.0108  0.0187  0.0040  0.0055 </r>
        <r>  0.0025  0.0011  0.0013  0.0072  0.0010  0.0109  0.0187  0.0040  0.0055 </r>
        <r>  0.0000  0.0021  0.0023  0.0003  0.0000  0.0000  0.0000  0.0000  0.0000 </r>
        <r>  0.0000  0.0021  0.0023  0.0003  0.0000  0.0000  0.0000  0.0000  0.0000 </r>
        <r>  0.0001  0.0019  0.0099  0.0000  0.0000  0.0000  0.0000  0.0000  0.0000 </r>
        <r>  0.0001  0.0019  0.0099  0.0000  0.0000  0.0000  0.0000  0.0000  0.0000 </r>
        <r>  0.0000  0.0021  0.0023  0.0003  0.0000  0.0000  0.0000  0.0000  0.0000 </r>
        <r>  0.0000  0.0021  0.0023  0.0003  0.0000  0.0000  0.0000  0.0000  0.0000 </r>
       </set>
       <set comment="band 62">
        <r>  0.0055  0.0000  0.0092  0.0006  0.0187  0.0001  0.0014  0.0224  0.0025 </r>
        <r>  0.0055  0.0000  0.0092  0.0006  0.0187  0.0001  0.0014  0.0224  0.0025 </r>
        <r>  0.0005  0.0027  0.0018  0.0051  0.0000  0.0000  0.0000  0.0000  0.0000 </r>
        <r>  0.0005  0.0027  0.0018  0.0056  0.0000  0.0000  0.0000  0.0000  0.0000 </r>
        <r>  0.0000  0.0000  0.0000  0.0058  0.0000  0.0000  0.0000  0.0000  0.0000 </r>
        <r>  0.0000  0.0000  0.0000  0.0059  0.0000  0.0000  0.0000  0.0000  0.0000 </r>
        <r>  0.0005  0.0026  0.0018  0.0055  0.0000  0.0000  0.0000  0.0000  0.0000 </r>
        <r>  0.0005  0.0028  0.0018  0.0052  0.0000  0.0000  0.0000  0.0000  0.0000 </r>
       </set>
       <set comment="band 63">
        <r>  0.0000  0.0086  0.0094  0.0015  0.0031  0.0000  0.0073  0.0000  0.0170 </r>
        <r>  0.0000  0.0085  0.0090  0.0015  0.0032  0.0000  0.0072  0.0000  0.0173 </r>
        <r>  0.0003  0.0000  0.0025  0.0006  0.0000  0.0000  0.0000  0.0000  0.0000 </r>
        <r>  0.0003  0.0000  0.0024  0.0006  0.0000  0.0000  0.0000  0.0000  0.0000 </r>
        <r>  0.0004  0.0006  0.0007  0.0000  0.0000  0.0000  0.0000  0.0000  0.0000 </r>
        <r>  0.0004  0.0006  0.0007  0.0000  0.0000  0.0000  0.0000  0.0000  0.0000 </r>
        <r>  0.0003  0.0000  0.0025  0.0006  0.0000  0.0000  0.0000  0.0000  0.0000 </r>
        <r>  0.0003  0.0000  0.0026  0.0005  0.0000  0.0000  0.0000  0.0000  0.0000 </r>
       </set>
       <set comment="band 64">
        <r>  0.0016  0.0004  0.0172  0.0002  0.0054  0.0052  0.0002  0.0020  0.0054 </r>
        <r>  0.0016  0.0003  0.0181  0.0001  0.0053  0.0058  0.0003  0.0021  0.0053 </r>
        <r>  0.0007  0.0042  0.0056  0.0046  0.0000  0.0000  0.0000  0.0000  0.0000 </r>
        <r>  0.0007  0.0042  0.0056  0.0044  0.0000  0.0000  0.0000  0.0000  0.0000 </r>
        <r>  0.0000  0.0000  0.0000  0.0100  0.0000  0.0000  0.0000  0.0000  0.0000 </r>
        <r>  0.0000  0.0000  0.0000  0.0099  0.0000  0.0000  0.0000  0.0000  0.0000 </r>
        <r>  0.0007  0.0042  0.0054  0.0049  0.0000  0.0000  0.0000  0.0000  0.0000 </r>
        <r>  0.0007  0.0041  0.0052  0.0048  0.0000  0.0000  0.0000  0.0000  0.0000 </r>
       </set>
      </set>
     </set>
    </set>
   </array>
  </projected>
 </calculation>
 <structure name="finalpos" >
  <crystal>
   <varray name="basis" >
    <v>      -5.24797400      -3.03045300       0.00000000 </v>
    <v>       5.24797400      -3.03045300       0.00000000 </v>
    <v>       0.00000000       1.96590000       6.28025000 </v>
   </varray>
   <i name="volume">    199.75890809 </i>
   <varray name="rec_basis" >
    <v>      -0.09527486      -0.16499183       0.05164722 </v>
    <v>       0.09527486      -0.16499183       0.05164722 </v>
    <v>       0.00000000       0.00000000       0.15922933 </v>
   </varray>
  </crystal>
  <varray name="positions" >
   <v>       0.83331900       0.16668100       0.00000000 </v>
   <v>       0.16668100       0.83331900       0.00000000 </v>
   <v>       0.43115000       0.07168100       0.78755800 </v>
   <v>       0.92831900       0.56885000       0.21244200 </v>
   <v>       0.79087800       0.79087800       0.78687400 </v>
   <v>       0.20912200       0.20912200       0.21312600 </v>
   <v>       0.07168100       0.43115000       0.78755800 </v>
   <v>       0.56885000       0.92831900       0.21244200 </v>
  </varray>
 </structure>
</modeling>
