 vasp.6.4.3 19Mar24 (build Oct 16 2024 18:29:25) complex                        
  
 executed on             LinuxIFC date 2025.08.15  10:17:40
 running   16 mpi-ranks, with    1 threads/rank, on    1 nodes
 distrk:  each k-point on   16 cores,    1 groups
 distr:  one band on NCORE=   1 cores,   16 groups


--------------------------------------------------------------------------------------------------------


 INCAR:
   ALGO = Fast
   EDIFF = 0.0007
   ENCUT = 520.0
   IBRION = 2
   ISIF = 3
   ISMEAR = -5
   ISPIN = 2
   LASPH = True
   LDAU = True
   LDAUJ = 0 0 0
   LDAUL = 0 2 0
   LDAUPRINT = 1
   LDAUTYPE = 2
   LDAUU = 0 5.3 0
   LMAXMIX = 4
   LORBIT = 11
   LREAL = Auto
   LWAVE = False
   MAGMOM = 4*0.005 2*3.558 8*0.058
   NELM = 100
   NSW = 99
   PREC = Accurate
   SIGMA = 0.05

 POTCAR:   PAW_PBE Al 04Jan2001                   
 POTCAR:   PAW_PBE Fe_pv 06Sep2000                
 POTCAR:   PAW_PBE O 08Apr2002                    
 POTCAR:   PAW_PBE Al 04Jan2001                   
   VRHFIN =Al: s2p1                                                                                 
   LEXCH  = PE                                                                                      
   EATOM  =    53.5387 eV,    3.9350 Ry                                                             
                                                                                                    
   TITEL  = PAW_PBE Al 04Jan2001                                                                    
   LULTRA =        F    use ultrasoft PP ?                                                          
   IUNSCR =        1    unscreen: 0-lin 1-nonlin 2-no                                               
   RPACOR =    1.500    partial core radius                                                         
   POMASS =   26.982; ZVAL   =    3.000    mass and valenz                                          
   RCORE  =    1.900    outmost cutoff radius                                                       
   RWIGS  =    2.650; RWIGS  =    1.402    wigner-seitz radius (au A)                               
   ENMAX  =  240.300; ENMIN  =  180.225 eV                                                          
   ICORE  =        2    local potential                                                             
   LCOR   =        T    correct aug charges                                                         
   LPAW   =        T    paw PP                                                                      
   EAUG   =  291.052                                                                                
   DEXC   =    -.041                                                                                
   RMAX   =    2.974    core radius for proj-oper                                                   
   RAUG   =    1.300    factor for augmentation sphere                                              
   RDEP   =    1.966    radius for radial grids                                                     
   QCUT   =   -4.203; QGAM   =    8.405    optimization parameters                                  
                                                                                                    
   Description                                                                                      
     l     E      TYP  RCUT    TYP  RCUT                                                            
     0   .000     23  1.900                                                                         
     0   .000     23  1.900                                                                         
     1   .000     23  1.900                                                                         
     1  1.000     23  1.900                                                                         
     2   .000      7  1.900                                                                         
  local pseudopotential read in
  partial core-charges read in
  atomic valenz-charges read in
  non local Contribution for L=           0  read in
    real space projection operators read in
  non local Contribution for L=           0  read in
    real space projection operators read in
  non local Contribution for L=           1  read in
    real space projection operators read in
  non local Contribution for L=           1  read in
    real space projection operators read in
    PAW grid and wavefunctions read in
 
   number of l-projection  operators is LMAX  =           4
   number of lm-projection operators is LMMAX =           8
 
 POTCAR:   PAW_PBE Fe_pv 06Sep2000                
   VRHFIN =Fe:  3pd7s1                                                                              
   LEXCH  = PE                                                                                      
   EATOM  =  2456.8974 eV,  180.5769 Ry                                                             
                                                                                                    
   TITEL  = PAW_PBE Fe_pv 06Sep2000                                                                 
   LULTRA =        F    use ultrasoft PP ?                                                          
   IUNSCR =        1    unscreen: 0-lin 1-nonlin 2-no                                               
   RPACOR =    1.750    partial core radius                                                         
   POMASS =   55.847; ZVAL   =   14.000    mass and valenz                                          
   RCORE  =    2.200    outmost cutoff radius                                                       
   RWIGS  =    2.200; RWIGS  =    1.164    wigner-seitz radius (au A)                               
   ENMAX  =  293.238; ENMIN  =  219.929 eV                                                          
   RCLOC  =    1.701    cutoff for local pot                                                        
   LCOR   =        T    correct aug charges                                                         
   LPAW   =        T    paw PP                                                                      
   EAUG   =  578.342                                                                                
   DEXC   =    -.002                                                                                
   RMAX   =    2.693    core radius for proj-oper                                                   
   RAUG   =    1.300    factor for augmentation sphere                                              
   RDEP   =    2.296    radius for radial grids                                                     
   QCUT   =   -4.642; QGAM   =    9.285    optimization parameters                                  
                                                                                                    
   Description                                                                                      
     l     E      TYP  RCUT    TYP  RCUT                                                            
     1   .000     23  2.000                                                                         
     1  -.400     23  2.000                                                                         
     2   .000     23  2.200                                                                         
     2   .000     23  2.200                                                                         
     0   .000     23  2.000                                                                         
     0  2.000     23  2.000                                                                         
     3   .000      7   .000                                                                         
  local pseudopotential read in
  partial core-charges read in
  atomic valenz-charges read in
  non local Contribution for L=           1  read in
    real space projection operators read in
  non local Contribution for L=           1  read in
    real space projection operators read in
  non local Contribution for L=           2  read in
    real space projection operators read in
  non local Contribution for L=           2  read in
    real space projection operators read in
  non local Contribution for L=           0  read in
    real space projection operators read in
  non local Contribution for L=           0  read in
    real space projection operators read in
    PAW grid and wavefunctions read in
 
   number of l-projection  operators is LMAX  =           6
   number of lm-projection operators is LMMAX =          18
 
 POTCAR:   PAW_PBE O 08Apr2002                    
   VRHFIN =O: s2p4                                                                                  
   LEXCH  = PE                                                                                      
   EATOM  =   432.3788 eV,   31.7789 Ry                                                             
                                                                                                    
   TITEL  = PAW_PBE O 08Apr2002                                                                     
   LULTRA =        F    use ultrasoft PP ?                                                          
   IUNSCR =        0    unscreen: 0-lin 1-nonlin 2-no                                               
   RPACOR =     .000    partial core radius                                                         
   POMASS =   16.000; ZVAL   =    6.000    mass and valenz                                          
   RCORE  =    1.520    outmost cutoff radius                                                       
   RWIGS  =    1.550; RWIGS  =     .820    wigner-seitz radius (au A)                               
   ENMAX  =  400.000; ENMIN  =  300.000 eV                                                          
   ICORE  =        2    local potential                                                             
   LCOR   =        T    correct aug charges                                                         
   LPAW   =        T    paw PP                                                                      
   EAUG   =  605.392                                                                                
   DEXC   =     .000                                                                                
   RMAX   =    2.264    core radius for proj-oper                                                   
   RAUG   =    1.300    factor for augmentation sphere                                              
   RDEP   =    1.550    radius for radial grids                                                     
   QCUT   =   -5.520; QGAM   =   11.041    optimization parameters                                  
                                                                                                    
   Description                                                                                      
     l     E      TYP  RCUT    TYP  RCUT                                                            
     0   .000     23  1.200                                                                         
     0  -.700     23  1.200                                                                         
     1   .000     23  1.520                                                                         
     1   .600     23  1.520                                                                         
     2   .000      7  1.500                                                                         
  local pseudopotential read in
  atomic valenz-charges read in
  non local Contribution for L=           0  read in
    real space projection operators read in
  non local Contribution for L=           0  read in
    real space projection operators read in
  non local Contribution for L=           1  read in
    real space projection operators read in
  non local Contribution for L=           1  read in
    real space projection operators read in
    PAW grid and wavefunctions read in
 
   number of l-projection  operators is LMAX  =           4
   number of lm-projection operators is LMMAX =           8
 
 Optimization of the real space projectors (new method)

 maximal supplied QI-value         = 19.84
 optimisation between [QCUT,QGAM] = [ 11.51, 23.22] = [ 37.09,150.92] Ry 
 Optimized for a Real-space Cutoff    1.18 Angstroem

   l    n(q)    QCUT    max X(q) W(low)/X(q) W(high)/X(q)  e(spline) 
   0      8    11.508    13.410    0.14E-04    0.92E-05    0.50E-08
   0      8    11.508   140.052    0.11E-03    0.16E-03    0.39E-07
   1      8    11.508     9.624    0.12E-04    0.31E-04    0.22E-07
   1      8    11.508    53.353    0.21E-03    0.91E-04    0.68E-07
 Optimization of the real space projectors (new method)

 maximal supplied QI-value         = 17.01
 optimisation between [QCUT,QGAM] = [ 11.57, 23.30] = [ 37.45,152.03] Ry 
 Optimized for a Real-space Cutoff    1.45 Angstroem

   l    n(q)    QCUT    max X(q) W(low)/X(q) W(high)/X(q)  e(spline) 
   1     10    11.565     4.550    0.21E-05    0.66E-06    0.28E-07
   1     10    11.565     5.234    0.44E-04    0.87E-04    0.16E-06
   2      9    11.565     3.960    0.23E-04    0.11E-05    0.56E-07
   2      9    11.565    29.565    0.22E-03    0.64E-04    0.31E-06
   0     10    11.565    23.582    0.16E-04    0.27E-05    0.12E-07
   0     10    11.565    39.747    0.24E-04    0.76E-05    0.87E-07
 Optimization of the real space projectors (new method)

 maximal supplied QI-value         = 24.76
 optimisation between [QCUT,QGAM] = [ 11.64, 23.27] = [ 37.91,151.63] Ry 
 Optimized for a Real-space Cutoff    1.08 Angstroem

   l    n(q)    QCUT    max X(q) W(low)/X(q) W(high)/X(q)  e(spline) 
   0      7    11.635     4.192    0.54E-04    0.80E-04    0.26E-07
   0      7    11.635     8.473    0.70E-04    0.40E-03    0.21E-06
   1      7    11.635     2.474    0.39E-04    0.14E-03    0.23E-07
   1      7    11.635     3.912    0.25E-03    0.37E-03    0.22E-06
 PAW_PBE Al 04Jan2001                   :
 energy of atom  1       EATOM=  -53.5387
 kinetic energy error for atom=    0.0002 (will be added to EATOM!!)
 PAW_PBE Fe_pv 06Sep2000                :
 energy of atom  2       EATOM=-2456.8974
 kinetic energy error for atom=    0.0062 (will be added to EATOM!!)
 PAW_PBE O 08Apr2002                    :
 energy of atom  3       EATOM= -432.3788
 kinetic energy error for atom=    0.0208 (will be added to EATOM!!)
 
 
 POSCAR: Al4 Fe2 O8
  positions in direct lattice
  No initial velocities read in


 exchange-correlation table for PE
   RHO(1)=    0.500       N(1)  =     2000
   RHO(2)=  100.500       N(2)  =     4000
 


--------------------------------------------------------------------------------------------------------


 ion  position               nearest neighbor table
   1  0.500  0.500  0.500-   9 1.92   8 1.92  10 1.92  12 1.92  11 1.92  14 1.92   2 2.87   4 2.87
                             3 2.87   2 2.87   4 2.87   3 2.87
   2  0.500  0.500  0.000-  10 1.92  13 1.92   9 1.92  11 1.92  12 1.92   7 1.92   1 2.87   3 2.87
                             4 2.87   1 2.87   3 2.87   4 2.87
   3  0.500  0.000  0.500-  13 1.92  10 1.92   8 1.92  14 1.92  12 1.92   7 1.92   4 2.87   2 2.87
                             1 2.87   4 2.87   2 2.87   1 2.87
   4  0.000  0.500  0.500-   8 1.92   9 1.92  13 1.92   7 1.92  11 1.92  14 1.92   3 2.87   1 2.87
                             2 2.87   3 2.87   1 2.87   2 2.87
   5  0.875  0.875  0.875-  14 1.97   7 1.97  11 1.97  12 1.97
   6  0.125  0.125  0.125-   8 1.97   9 1.97  13 1.97  10 1.97
   7  0.735  0.735  0.735-   4 1.92   3 1.92   2 1.92   5 1.97
   8  0.265  0.265  0.704-   4 1.92   1 1.92   3 1.92   6 1.97
   9  0.265  0.704  0.265-   1 1.92   4 1.92   2 1.92   6 1.97
  10  0.704  0.265  0.265-   2 1.92   3 1.92   1 1.92   6 1.97
  11  0.735  0.296  0.735-   2 1.92   4 1.92   1 1.92   5 1.97
  12  0.296  0.735  0.735-   1 1.92   2 1.92   3 1.92   5 1.97
  13  0.265  0.265  0.265-   3 1.92   2 1.92   4 1.92   6 1.97
  14  0.735  0.735  0.296-   3 1.92   4 1.92   1 1.92   5 1.97
 
  LATTYP: Found a face centered cubic cell.
 ALAT       =     8.1267078815
  
  Lattice vectors:
  
 A1 = (   4.9765731000,   0.0000079900,   2.8732203400)
 A2 = (   1.6588623600,   4.6919569000,   2.8732223400)
 A3 = (  -0.0000010000,   0.0000020000,   5.7464406900)


Analysis of symmetry for initial positions (statically):
=====================================================================
 Subroutine PRICEL returns:
 Original cell was already a primitive cell.
 

 Routine SETGRP: Setting up the symmetry group for a 
 face centered cubic supercell.


 Subroutine GETGRP returns: Found 24 space group operations
 (whereof  6 operations were pure point group operations)
 out of a pool of 48 trial point group operations.


The static configuration has the point symmetry C_3v.
 The point group associated with its full space group is T_d .


Analysis of symmetry for dynamics (positions and initial velocities):
=====================================================================
 Subroutine PRICEL returns:
 Original cell was already a primitive cell.
 

 Routine SETGRP: Setting up the symmetry group for a 
 face centered cubic supercell.


 Subroutine GETGRP returns: Found 24 space group operations
 (whereof  6 operations were pure point group operations)
 out of a pool of 48 trial point group operations.


The dynamic configuration has the point symmetry C_3v.
 The point group associated with its full space group is T_d .


Analysis of structural, dynamic, and magnetic symmetry:
=====================================================================
 Subroutine PRICEL returns:
 Original cell was already a primitive cell.
 

 Routine SETGRP: Setting up the symmetry group for a 
 face centered cubic supercell.


 Subroutine GETGRP returns: Found 24 space group operations
 (whereof  6 operations were pure point group operations)
 out of a pool of 48 trial point group operations.


The overall configuration has the point symmetry C_3v.
 The point group associated with its full space group is T_d .


 Subroutine INISYM returns: Found 24 space group operations
 (whereof  6 operations are pure point group operations),
 and found     1 'primitive' translations


----------------------------------------------------------------------------------------

                                     Primitive cell                                     

  volume of cell :     134.1785

  direct lattice vectors                    reciprocal lattice vectors
     4.976573100  0.000007990  2.873220340     0.200941567 -0.071043827  0.000000060
     1.658862360  4.691956900  2.873222340    -0.000000299  0.213130839 -0.000000074
    -0.000001000  0.000002000  5.746440690    -0.100470634 -0.071043580  0.174020771

  length of vectors
     5.746448898  5.746450252  5.746440690     0.213130802  0.213130839  0.213130869

  position of ions in fractional coordinates (direct lattice)
     0.499997620  0.499997620  0.499997620
     0.499997620  0.499997620  0.000007140
     0.499997620  0.000007140  0.499997620
     0.000007140  0.499997620  0.499997620
     0.875000000  0.875000000  0.875000000
     0.125000000  0.125000000  0.125000000
     0.734767770  0.734765770  0.734766770
     0.265239590  0.265240590  0.704281220
     0.265238590  0.704281220  0.265240590
     0.704281220  0.265238590  0.265239590
     0.734766770  0.295700680  0.734767770
     0.295700680  0.734766770  0.734765770
     0.265240590  0.265239590  0.265238590
     0.734765770  0.734767770  0.295699680

  ion indices of the primitive-cell ions
   primitive index   ion index
                 1           1
                 2           2
                 3           3
                 4           4
                 5           5
                 6           6
                 7           7
                 8           8
                 9           9
                10          10
                11          11
                12          12
                13          13
                14          14

----------------------------------------------------------------------------------------

 
 
 KPOINTS: pymatgen with grid density = 1656 / numb

Automatic generation of k-mesh.
 Grid dimensions read from file:
 generate k-points for:    4    4    4

 Generating k-lattice:

  Cartesian coordinates                     Fractional coordinates (reciprocal lattice)
     0.050235392 -0.017760957  0.000000015     0.250000000 -0.000000000 -0.000000000
    -0.000000075  0.053282710 -0.000000019    -0.000000000  0.250000000 -0.000000000
    -0.025117658 -0.017760895  0.043505193    -0.000000000 -0.000000000  0.250000000

  Length of vectors
     0.053282700  0.053282710  0.053282717

  Shift w.r.t. Gamma in fractional coordinates (k-lattice)
     0.000000000  0.000000000  0.000000000

 TETIRR: Found      9 inequivalent tetrahedra from      384
 
 Subroutine IBZKPT returns following result:
 ===========================================
 
 Found      8 irreducible k-points:
 
 Following reciprocal coordinates:
            Coordinates               Weight
  0.000000  0.000000  0.000000      1.000000
  0.250000  0.000000  0.000000      8.000000
  0.500000 -0.000000 -0.000000      4.000000
  0.250000  0.250000  0.000000      6.000000
  0.500000  0.250000  0.000000     24.000000
 -0.250000  0.250000 -0.000000     12.000000
  0.500000  0.500000 -0.000000      3.000000
 -0.250000  0.500000  0.250000      6.000000
 
 Following cartesian coordinates:
            Coordinates               Weight
  0.000000  0.000000  0.000000      1.000000
  0.050235 -0.017761  0.000000      8.000000
  0.100471 -0.035522  0.000000      4.000000
  0.050235  0.035522 -0.000000      6.000000
  0.100471  0.017761  0.000000     24.000000
 -0.050235  0.071044 -0.000000     12.000000
  0.100471  0.071044 -0.000000      3.000000
 -0.075353  0.106565  0.043505      6.000000
 


--------------------------------------------------------------------------------------------------------




 Dimension of arrays:
   k-points           NKPTS =      8   k-points in BZ     NKDIM =      8   number of bands    NBANDS=     64
   number of dos      NEDOS =    301   number of ions     NIONS =     14
   non local maximal  LDIM  =      6   non local SUM 2l+1 LMDIM =     18
   total plane-waves  NPLWV = 110592
   max r-space proj   IRMAX =  10483   max aug-charges    IRDMAX=  32274
   dimension x,y,z NGX =    48 NGY =   48 NGZ =   48
   dimension x,y,z NGXF=    96 NGYF=   96 NGZF=   96
   support grid    NGXF=    96 NGYF=   96 NGZF=   96
   ions per type =               4   2   8
   NGX,Y,Z   is equivalent  to a cutoff of  13.89, 13.89, 13.89 a.u.
   NGXF,Y,Z  is equivalent  to a cutoff of  27.77, 27.77, 27.77 a.u.

 SYSTEM =  unknown system                          
 POSCAR =  Al4 Fe2 O8                              

 Startparameter for this run:
   NWRITE =      2    write-flag & timer
   PREC   = accura    normal or accurate (medium, high low for compatibility)
   ISTART =      0    job   : 0-new  1-cont  2-samecut
   ICHARG =      2    charge: 1-file 2-atom 10-const
   ISPIN  =      2    spin polarized calculation?
   LNONCOLLINEAR =      F non collinear calculations
   LSORBIT =      F    spin-orbit coupling
   INIWAV =      1    electr: 0-lowe 1-rand  2-diag
   LASPH  =      T    aspherical Exc in radial PAW
 Electronic Relaxation 1
   ENCUT  =  520.0 eV  38.22 Ry    6.18 a.u.  10.68 10.68 10.68*2*pi/ulx,y,z
   ENINI  =  520.0     initial cutoff
   ENAUG  =  605.4 eV  augmentation charge cutoff
   NELM   =    100;   NELMIN=  2; NELMDL= -5     # of ELM steps 
   EDIFF  = 0.7E-03   stopping-criterion for ELM
   LREAL  =      T    real-space projection
   NLSPLINE    = F    spline interpolate recip. space projectors
   LCOMPAT=      F    compatible to vasp.4.4
   GGA_COMPAT  = T    GGA compatible to vasp.4.4-vasp.4.6
   LMAXPAW     = -100 max onsite density
   LMAXMIX     =    4 max onsite mixed and CHGCAR
   VOSKOWN=      0    Vosko Wilk Nusair interpolation
   ROPT   =   -0.00025  -0.00025  -0.00025
 Ionic relaxation
   EDIFFG = 0.7E-02   stopping-criterion for IOM
   NSW    =     99    number of steps for IOM
   NBLOCK =      1;   KBLOCK =     99    inner block; outer block 
   IBRION =      2    ionic relax: 0-MD 1-quasi-New 2-CG
   NFREE  =      1    steps in history (QN), initial steepest desc. (CG)
   ISIF   =      3    stress and relaxation
   IWAVPR =     11    prediction:  0-non 1-charg 2-wave 3-comb
   ISYM   =      2    0-nonsym 1-usesym 2-fastsym
   LCORR  =      T    Harris-Foulkes like correction to forces

   POTIM  = 0.5000    time-step for ionic-motion
   TEIN   =    0.0    initial temperature
   TEBEG  =    0.0;   TEEND  =   0.0 temperature during run
   SMASS  =  -3.00    Nose mass-parameter (am)
   estimated Nose-frequenzy (Omega)   =  0.10E-29 period in steps = 0.13E+47 mass=  -0.755E-27a.u.
   SCALEE = 1.0000    scale energy and forces
   NPACO  =    256;   APACO  = 10.0  distance and # of slots for P.C.
   PSTRESS=    0.0 pullay stress

  Mass of Ions in am
   POMASS =  26.98 55.85 16.00
  Ionic Valenz
   ZVAL   =   3.00 14.00  6.00
  Atomic Wigner-Seitz radii
   RWIGS  =  -1.00 -1.00 -1.00
  virtual crystal weights 
   VCA    =   1.00  1.00  1.00
   NELECT =      88.0000    total number of electrons
   NUPDOWN=      -1.0000    fix difference up-down

 DOS related values:
   EMIN   =  10.00;   EMAX   =-10.00  energy-range for DOS
   EFERMI =   0.00;   METHOD = LEGACY      
   ISMEAR =    -5;   SIGMA  =   0.05  broadening in eV -4-tet -1-fermi 0-gaus

 Electronic relaxation 2 (details)
   IALGO  =     68    algorithm
   LDIAG  =      T    sub-space diagonalisation (order eigenvalues)
   LSUBROT=      F    optimize rotation matrix (better conditioning)
   TURBO    =      0    0=normal 1=particle mesh
   IRESTART =      0    0=no restart 2=restart with 2 vectors
   NREBOOT  =      0    no. of reboots
   NMIN     =      0    reboot dimension
   EREF     =   0.00    reference energy to select bands
   IMIX   =      4    mixing-type and parameters
     AMIX     =   0.40;   BMIX     =  1.00
     AMIX_MAG =   1.60;   BMIX_MAG =  1.00
     AMIN     =   0.10
     WC   =   100.;   INIMIX=   1;  MIXPRE=   1;  MAXMIX= -45

 Intra band minimization:
   WEIMIN = 0.0010     energy-eigenvalue tresh-hold
   EBREAK =  0.27E-05  absolut break condition
   DEPER  =   0.30     relativ break condition  

   TIME   =   0.40     timestep for ELM

  volume/ion in A,a.u.               =       9.58        64.68
  Fermi-wavevector in a.u.,A,eV,Ry     =   1.422355  2.687861 27.525865  2.023094
  Thomas-Fermi vector in A             =   2.543068
 
 Write flags
   LWAVE        =      F    write WAVECAR
   LDOWNSAMPLE  =      F    k-point downsampling of WAVECAR
   LCHARG       =      T    write CHGCAR
   LVTOT        =      F    write LOCPOT, total local potential
   LVHAR        =      F    write LOCPOT, Hartree potential only
   WRT_POTENTIAL= false  ! write potential to hdf5 file
   LELF         =      F    write electronic localiz. function (ELF)
   LORBIT       =     11    0 simple, 1 ext, 2 COOP (PROOUT), +10 PAW based schemes


 Dipole corrections
   LMONO      =      F    monopole corrections only (constant potential shift)
   LDIPOL     =      F    correct potential (dipole corrections)
   IDIPOL     =      0    1-x, 2-y, 3-z, 4-all directions 
   EPSILON    =  1.0000000 bulk dielectric constant
   LVACPOTAV  =      F  vacuum potentials using an averaging scheme for the charge density
   VACPOTFLAT =  0.1000000 required flatness to determine vacuum potential
 LDA+U is selected, type is set to LDAUTYPE =  2
   angular momentum for each species LDAUL =     0    2    0
   U (eV)           for each species LDAUU =   0.0  5.3  0.0
   J (eV)           for each species LDAUJ =   0.0  0.0  0.0
 Exchange correlation treatment:
   GGA     = PE    functional components
   XC_C    = 1    coefficients multiplying the functional components
   LIBXC   =     F    Libxc                    
   VOSKOWN =     0    Vosko Wilk Nusair interpolation
   LHFCALC =     F    Hartree Fock is set to
   LHFONE  =     F    Hartree Fock one center treatment
   AEXX    =    0.0000 exact exchange contribution

 Parameters of functionals:
   PE:
     No parameter
 
 Van der Waals corrections
   IVDW    =     0    specifies the selected vdW correction

 Linear response parameters
   LEPSILON=     F    determine dielectric tensor
   LRPA    =     F    only Hartree local field effects (RPA)
   LNABLA  =     F    use nabla operator in PAW spheres
   LVEL    =     F    velocity operator in full k-point grid
   CSHIFT  =0.1000    complex shift for real part using Kramers Kronig
   OMEGAMAX=  -1.0    maximum frequency
   DEG_THRESHOLD= 0.2000000E-02 threshold for treating states as degnerate
   RTIME   =   -0.100 relaxation time in fs
  (WPLASMAI=    0.000 imaginary part of plasma frequency in eV, 0.658/RTIME)
   DFIELD  = 0.0000000 0.0000000 0.0000000 field for delta impulse in time
 
  Optional k-point grid parameters
   LKPOINTS_OPT  =     F    use optional k-point grid
   KPOINTS_OPT_MODE=     1    mode for optional k-point grid
 
 Orbital magnetization related:
   ORBITALMAG=     F  switch on orbital magnetization
   LCHIMAG   =     F  perturbation theory with respect to B field
   DQ        =  0.001000  dq finite difference perturbation B field
   LLRAUG    =     F  two centre corrections for induced B field
   LBONE     =     F  B-component reconstruction in AE one-centre
   LVGVCALC  =     T  calculate vGv susceptibility
   LVGVAPPL  =     F  apply vGv susceptibility instead of pGv for G=0

 Random number generation:
   RANDOM_GENERATOR = DEFAULT
   PCG_SEED         = not used


--------------------------------------------------------------------------------------------------------


 conjugate gradient relaxation of ions
 charge density and potential will be updated during run
 spin polarized calculation
 RMM-DIIS sequential band-by-band and
  variant of blocked Davidson during initial phase
 perform sub-space diagonalisation
    before iterative eigenvector-optimisation
 modified Broyden-mixing scheme, WC =      100.0
 initial mixing is a Kerker type mixing with AMIX =  0.4000 and BMIX =      1.0000
 Hartree-type preconditioning will be used
 using additional bands           20
 real space projection scheme for non local part
 use partial core corrections
 calculate Harris-corrections to forces 
   (improved forces if not selfconsistent)
 use gradient corrections 
 use of overlap-Matrix (Vanderbilt PP)
 Fermi weights with tetrahedron method with Bloechl corrections


--------------------------------------------------------------------------------------------------------


  energy-cutoff  :      520.00
  volume of cell :      134.18
      direct lattice vectors                 reciprocal lattice vectors
     4.976573100  0.000007990  2.873220340     0.200941567 -0.071043827  0.000000060
     1.658862360  4.691956900  2.873222340    -0.000000299  0.213130839 -0.000000074
    -0.000001000  0.000002000  5.746440690    -0.100470634 -0.071043580  0.174020771

  length of vectors
     5.746448898  5.746450252  5.746440690     0.213130802  0.213130839  0.213130869


 
 k-points in units of 2pi/SCALE and weight: pymatgen with grid density = 1656 / numb
   0.00000000  0.00000000  0.00000000       0.016
   0.05023539 -0.01776096  0.00000001       0.125
   0.10047078 -0.03552191  0.00000003       0.062
   0.05023532  0.03552175 -0.00000000       0.094
   0.10047071  0.01776080  0.00000001       0.375
  -0.05023547  0.07104367 -0.00000003       0.188
   0.10047063  0.07104351 -0.00000001       0.047
  -0.07535320  0.10656548  0.04350514       0.094
 
 k-points in reciprocal lattice and weights: pymatgen with grid density = 1656 / numb
   0.00000000  0.00000000  0.00000000       0.016
   0.25000000  0.00000000  0.00000000       0.125
   0.50000000 -0.00000000 -0.00000000       0.062
   0.25000000  0.25000000  0.00000000       0.094
   0.50000000  0.25000000  0.00000000       0.375
  -0.25000000  0.25000000 -0.00000000       0.188
   0.50000000  0.50000000 -0.00000000       0.047
  -0.25000000  0.50000000  0.25000000       0.094
 
 position of ions in fractional coordinates (direct lattice) 
   0.49999762  0.49999762  0.49999762
   0.49999762  0.49999762  0.00000714
   0.49999762  0.00000714  0.49999762
   0.00000714  0.49999762  0.49999762
   0.87500000  0.87500000  0.87500000
   0.12500000  0.12500000  0.12500000
   0.73476777  0.73476577  0.73476677
   0.26523959  0.26524059  0.70428122
   0.26523859  0.70428122  0.26524059
   0.70428122  0.26523859  0.26523959
   0.73476677  0.29570068  0.73476777
   0.29570068  0.73476677  0.73476577
   0.26524059  0.26523959  0.26523859
   0.73476577  0.73476777  0.29569968
 
 position of ions in cartesian coordinates  (Angst):
   3.31770144  2.34597228  5.74641433
   3.31770194  2.34597128  2.87324869
   2.48828605  0.00003850  4.30983052
   0.82946226  2.34596828  4.30983151
   5.80600515  4.10547103 10.05627295
   0.82942931  0.58649586  1.43661042
   4.87550006  3.44749666  8.44458879
   1.75998114  1.24450094  5.57129723
   2.48828457  3.30445978  4.30983477
   3.94490102  1.24449419  4.30982814
   4.14714654  1.38742219  7.18306004
   2.69045225  3.44749785  7.18304942
   1.75998489  1.24449537  3.04836480
   4.87549387  3.44750517  5.92151580
 


--------------------------------------------------------------------------------------------------------


 k-point     1 :   0.0000 0.0000 0.0000  plane waves:    3695
 k-point     2 :   0.2500 0.0000 0.0000  plane waves:    3620
 k-point     3 :   0.5000-0.0000-0.0000  plane waves:    3600
 k-point     4 :   0.2500 0.2500 0.0000  plane waves:    3615
 k-point     5 :   0.5000 0.2500 0.0000  plane waves:    3607
 k-point     6 :  -0.2500 0.2500-0.0000  plane waves:    3599
 k-point     7 :   0.5000 0.5000-0.0000  plane waves:    3572
 k-point     8 :  -0.2500 0.5000 0.2500  plane waves:    3636

 maximum and minimum number of plane-waves per node :      3695     3572

 maximum number of plane-waves:      3695
 maximum index in each direction: 
   IXMAX=   10   IYMAX=   10   IZMAX=   10
   IXMIN=  -11   IYMIN=  -11   IZMIN=  -10


 serial   3D FFT for wavefunctions
 parallel 3D FFT for charge:
    minimum data exchange during FFTs selected (reduces bandwidth)


 total amount of memory used by VASP MPI-rank0    60100. kBytes
=======================================================================

   base      :      30000. kBytes
   nonlr-proj:       9507. kBytes
   fftplans  :       2356. kBytes
   grid      :      13870. kBytes
   one-center:        435. kBytes
   wavefun   :       3932. kBytes
 
     INWAV:  cpu time      0.0000: real time      0.0001
 Broyden mixing: mesh for mixing (old mesh)
   NGX = 21   NGY = 21   NGZ = 21
  (NGX  = 96   NGY  = 96   NGZ  = 96)
  gives a total of   9261 points

 initial charge density was supplied:
 charge density of overlapping atoms calculated
 number of electron      88.0000000 magnetization       7.6000000
 keeping initial charge density in first step


--------------------------------------------------------------------------------------------------------


 Maximum index for non-local projection operator        10005
 Maximum index for augmentation-charges         2041 (set IRDMAX)


--------------------------------------------------------------------------------------------------------


 First call to EWALD:  gamma=   0.346
 Maximum number of real-space cells 3x 3x 3
 Maximum number of reciprocal cells 3x 3x 3

    FEWALD:  cpu time      0.0007: real time      0.0007


--------------------------------------- Ionic step        1  -------------------------------------------




--------------------------------------- Iteration      1(   1)  ---------------------------------------


    POTLOK:  cpu time      0.0481: real time      0.0486
    SETDIJ:  cpu time      0.2941: real time      0.2948
atom =   1  type =  1  l = 0
 
 onsite density matrix
 
spin component  1
 
  0.3078
 
spin component  2
 
  0.3067
 
 occupancies and eigenvectors
 
  o =  0.3067  v =  0.0000  1.0000      0.0000  0.0000
  o =  0.3078  v =  1.0000  0.0000      0.0000  0.0000
 
atom =   2  type =  1  l = 0
 
 onsite density matrix
 
spin component  1
 
  0.3078
 
spin component  2
 
  0.3067
 
 occupancies and eigenvectors
 
  o =  0.3067  v =  0.0000  1.0000      0.0000  0.0000
  o =  0.3078  v =  1.0000  0.0000      0.0000  0.0000
 
atom =   3  type =  1  l = 0
 
 onsite density matrix
 
spin component  1
 
  0.3078
 
spin component  2
 
  0.3067
 
 occupancies and eigenvectors
 
  o =  0.3067  v =  0.0000  1.0000      0.0000  0.0000
  o =  0.3078  v =  1.0000  0.0000      0.0000  0.0000
 
atom =   4  type =  1  l = 0
 
 onsite density matrix
 
spin component  1
 
  0.3078
 
spin component  2
 
  0.3067
 
 occupancies and eigenvectors
 
  o =  0.3067  v =  0.0000  1.0000      0.0000  0.0000
  o =  0.3078  v =  1.0000  0.0000      0.0000  0.0000
 
atom =   5  type =  2  l = 2
 
 onsite density matrix
 
spin component  1
 
  0.7854  0.0000  0.0000  0.0000  0.0000
  0.0000  0.7854  0.0000  0.0000  0.0000
  0.0000  0.0000  0.7854  0.0000  0.0000
  0.0000  0.0000  0.0000  0.7854  0.0000
  0.0000  0.0000  0.0000  0.0000  0.7854
 
spin component  2
 
  0.4671  0.0000  0.0000  0.0000  0.0000
  0.0000  0.4671  0.0000  0.0000  0.0000
  0.0000  0.0000  0.4671  0.0000  0.0000
  0.0000  0.0000  0.0000  0.4671  0.0000
  0.0000  0.0000  0.0000  0.0000  0.4671
 
 occupancies and eigenvectors
 
  o =  0.4671  v =  0.0000  0.0000  0.0000  0.0000  0.0000  0.0000  0.0000  1.0000  0.0000  0.0000      0.0000  0.0000  0.0000  0.0000  0.0000  0.0000  0.0000  0.0000  0.0000  0.0000
  o =  0.4671  v =  0.0000  0.0000  0.0000  0.0000  0.0000  1.0000  0.0000  0.0000  0.0000  0.0000      0.0000  0.0000  0.0000  0.0000  0.0000  0.0000  0.0000  0.0000  0.0000  0.0000
  o =  0.4671  v =  0.0000  0.0000  0.0000  0.0000  0.0000  0.0000  1.0000  0.0000  0.0000  0.0000      0.0000  0.0000  0.0000  0.0000  0.0000  0.0000  0.0000  0.0000  0.0000  0.0000
  o =  0.4671  v =  0.0000  0.0000  0.0000  0.0000  0.0000  0.0000  0.0000  0.0000  1.0000  0.0000      0.0000  0.0000  0.0000  0.0000  0.0000  0.0000  0.0000  0.0000  0.0000  0.0000
  o =  0.4671  v =  0.0000  0.0000  0.0000  0.0000  0.0000  0.0000  0.0000  0.0000  0.0000  1.0000      0.0000  0.0000  0.0000  0.0000  0.0000  0.0000  0.0000  0.0000  0.0000  0.0000
  o =  0.7854  v =  0.0000  0.0000  1.0000  0.0000  0.0000  0.0000  0.0000  0.0000  0.0000  0.0000      0.0000  0.0000  0.0000  0.0000  0.0000  0.0000  0.0000  0.0000  0.0000  0.0000
  o =  0.7854  v =  0.0000  1.0000  0.0000  0.0000  0.0000  0.0000  0.0000  0.0000  0.0000  0.0000      0.0000  0.0000  0.0000  0.0000  0.0000  0.0000  0.0000  0.0000  0.0000  0.0000
  o =  0.7854  v =  1.0000  0.0000  0.0000  0.0000  0.0000  0.0000  0.0000  0.0000  0.0000  0.0000      0.0000  0.0000  0.0000  0.0000  0.0000  0.0000  0.0000  0.0000  0.0000  0.0000
  o =  0.7854  v =  0.0000  0.0000  0.0000  1.0000  0.0000  0.0000  0.0000  0.0000  0.0000  0.0000      0.0000  0.0000  0.0000  0.0000  0.0000  0.0000  0.0000  0.0000  0.0000  0.0000
  o =  0.7854  v =  0.0000  0.0000  0.0000  0.0000  1.0000  0.0000  0.0000  0.0000  0.0000  0.0000      0.0000  0.0000  0.0000  0.0000  0.0000  0.0000  0.0000  0.0000  0.0000  0.0000
 
atom =   6  type =  2  l = 2
 
 onsite density matrix
 
spin component  1
 
  0.7854  0.0000  0.0000  0.0000  0.0000
  0.0000  0.7854  0.0000  0.0000  0.0000
  0.0000  0.0000  0.7854  0.0000  0.0000
  0.0000  0.0000  0.0000  0.7854  0.0000
  0.0000  0.0000  0.0000  0.0000  0.7854
 
spin component  2
 
  0.4671  0.0000  0.0000  0.0000  0.0000
  0.0000  0.4671  0.0000  0.0000  0.0000
  0.0000  0.0000  0.4671  0.0000  0.0000
  0.0000  0.0000  0.0000  0.4671  0.0000
  0.0000  0.0000  0.0000  0.0000  0.4671
 
 occupancies and eigenvectors
 
  o =  0.4671  v =  0.0000  0.0000  0.0000  0.0000  0.0000  0.0000  0.0000  1.0000  0.0000  0.0000      0.0000  0.0000  0.0000  0.0000  0.0000  0.0000  0.0000  0.0000  0.0000  0.0000
  o =  0.4671  v =  0.0000  0.0000  0.0000  0.0000  0.0000  1.0000  0.0000  0.0000  0.0000  0.0000      0.0000  0.0000  0.0000  0.0000  0.0000  0.0000  0.0000  0.0000  0.0000  0.0000
  o =  0.4671  v =  0.0000  0.0000  0.0000  0.0000  0.0000  0.0000  1.0000  0.0000  0.0000  0.0000      0.0000  0.0000  0.0000  0.0000  0.0000  0.0000  0.0000  0.0000  0.0000  0.0000
  o =  0.4671  v =  0.0000  0.0000  0.0000  0.0000  0.0000  0.0000  0.0000  0.0000  1.0000  0.0000      0.0000  0.0000  0.0000  0.0000  0.0000  0.0000  0.0000  0.0000  0.0000  0.0000
  o =  0.4671  v =  0.0000  0.0000  0.0000  0.0000  0.0000  0.0000  0.0000  0.0000  0.0000  1.0000      0.0000  0.0000  0.0000  0.0000  0.0000  0.0000  0.0000  0.0000  0.0000  0.0000
  o =  0.7854  v =  0.0000  0.0000  1.0000  0.0000  0.0000  0.0000  0.0000  0.0000  0.0000  0.0000      0.0000  0.0000  0.0000  0.0000  0.0000  0.0000  0.0000  0.0000  0.0000  0.0000
  o =  0.7854  v =  0.0000  1.0000  0.0000  0.0000  0.0000  0.0000  0.0000  0.0000  0.0000  0.0000      0.0000  0.0000  0.0000  0.0000  0.0000  0.0000  0.0000  0.0000  0.0000  0.0000
  o =  0.7854  v =  1.0000  0.0000  0.0000  0.0000  0.0000  0.0000  0.0000  0.0000  0.0000  0.0000      0.0000  0.0000  0.0000  0.0000  0.0000  0.0000  0.0000  0.0000  0.0000  0.0000
  o =  0.7854  v =  0.0000  0.0000  0.0000  1.0000  0.0000  0.0000  0.0000  0.0000  0.0000  0.0000      0.0000  0.0000  0.0000  0.0000  0.0000  0.0000  0.0000  0.0000  0.0000  0.0000
  o =  0.7854  v =  0.0000  0.0000  0.0000  0.0000  1.0000  0.0000  0.0000  0.0000  0.0000  0.0000      0.0000  0.0000  0.0000  0.0000  0.0000  0.0000  0.0000  0.0000  0.0000  0.0000
 
atom =   7  type =  3  l = 0
 
 onsite density matrix
 
spin component  1
 
  0.8202
 
spin component  2
 
  0.8045
 
 occupancies and eigenvectors
 
  o =  0.8045  v =  0.0000  1.0000      0.0000  0.0000
  o =  0.8202  v =  1.0000  0.0000      0.0000  0.0000
 
atom =   8  type =  3  l = 0
 
 onsite density matrix
 
spin component  1
 
  0.8202
 
spin component  2
 
  0.8045
 
 occupancies and eigenvectors
 
  o =  0.8045  v =  0.0000  1.0000      0.0000  0.0000
  o =  0.8202  v =  1.0000  0.0000      0.0000  0.0000
 
atom =   9  type =  3  l = 0
 
 onsite density matrix
 
spin component  1
 
  0.8202
 
spin component  2
 
  0.8045
 
 occupancies and eigenvectors
 
  o =  0.8045  v =  0.0000  1.0000      0.0000  0.0000
  o =  0.8202  v =  1.0000  0.0000      0.0000  0.0000
 
atom =  10  type =  3  l = 0
 
 onsite density matrix
 
spin component  1
 
  0.8202
 
spin component  2
 
  0.8045
 
 occupancies and eigenvectors
 
  o =  0.8045  v =  0.0000  1.0000      0.0000  0.0000
  o =  0.8202  v =  1.0000  0.0000      0.0000  0.0000
 
atom =  11  type =  3  l = 0
 
 onsite density matrix
 
spin component  1
 
  0.8202
 
spin component  2
 
  0.8045
 
 occupancies and eigenvectors
 
  o =  0.8045  v =  0.0000  1.0000      0.0000  0.0000
  o =  0.8202  v =  1.0000  0.0000      0.0000  0.0000
 
atom =  12  type =  3  l = 0
 
 onsite density matrix
 
spin component  1
 
  0.8202
 
spin component  2
 
  0.8045
 
 occupancies and eigenvectors
 
  o =  0.8045  v =  0.0000  1.0000      0.0000  0.0000
  o =  0.8202  v =  1.0000  0.0000      0.0000  0.0000
 
atom =  13  type =  3  l = 0
 
 onsite density matrix
 
spin component  1
 
  0.8202
 
spin component  2
 
  0.8045
 
 occupancies and eigenvectors
 
  o =  0.8045  v =  0.0000  1.0000      0.0000  0.0000
  o =  0.8202  v =  1.0000  0.0000      0.0000  0.0000
 
atom =  14  type =  3  l = 0
 
 onsite density matrix
 
spin component  1
 
  0.8202
 
spin component  2
 
  0.8045
 
 occupancies and eigenvectors
 
  o =  0.8045  v =  0.0000  1.0000      0.0000  0.0000
  o =  0.8202  v =  1.0000  0.0000      0.0000  0.0000
 
     EDDAV:  cpu time      1.3288: real time      1.3362
 BZINTS: Fermi energy:   23.663557;   88.000000 electrons
         Band energy: 0.339105E+03;  BLOECHL correction:   -0.132305
       DOS:  cpu time      0.0009: real time      0.0010
    --------------------------------------------
      LOOP:  cpu time      1.6719: real time      1.6807

 eigenvalue-minimisations  :  2048
 total energy-change (2. order) : 0.9384574E+03  (-0.4582428E+04)
 number of electron      88.0000000 magnetization       7.6000000
 augmentation part       88.0000000 magnetization       7.6000000

 Free energy of the ion-electron system (eV)
  ---------------------------------------------------
  alpha Z        PSCENC =       302.59810663
  Ewald energy   TEWEN  =     -5968.11663197
  -Hartree energ DENC   =     -2546.02230580
  -exchange      EXHF   =         0.00000000
  -V(xc)+E(xc)   XCENC  =       265.33303149
  PAW double counting   =      5780.38886124    -5821.62866318
  entropy T*S    EENTRO =         0.00000000
  eigenvalues    EBANDS =       339.10486740
  atomic energy  EATOM  =      8586.80016673
  Solvation  Ediel_sol  =         0.00000000
  ---------------------------------------------------
  free energy    TOTEN  =       938.45743254 eV

  energy without entropy =      938.45743254  energy(sigma->0) =      938.45743254


--------------------------------------------------------------------------------------------------------




--------------------------------------- Iteration      1(   2)  ---------------------------------------


     EDDAV:  cpu time      1.3678: real time      1.3767
 BZINTS: Fermi energy:   11.288528;   88.000000 electrons
         Band energy:-0.621550E+03;  BLOECHL correction:   -0.145443
       DOS:  cpu time      0.0006: real time      0.0006
    --------------------------------------------
      LOOP:  cpu time      1.3684: real time      1.3773

 eigenvalue-minimisations  :  2144
 total energy-change (2. order) :-0.9606544E+03  (-0.9033473E+03)
 number of electron      88.0000000 magnetization       7.6000000
 augmentation part       88.0000000 magnetization       7.6000000

 Free energy of the ion-electron system (eV)
  ---------------------------------------------------
  alpha Z        PSCENC =       302.59810663
  Ewald energy   TEWEN  =     -5968.11663197
  -Hartree energ DENC   =     -2546.02230580
  -exchange      EXHF   =         0.00000000
  -V(xc)+E(xc)   XCENC  =       265.33303149
  PAW double counting   =      5780.38886124    -5821.62866318
  entropy T*S    EENTRO =         0.00000000
  eigenvalues    EBANDS =      -621.54955985
  atomic energy  EATOM  =      8586.80016673
  Solvation  Ediel_sol  =         0.00000000
  ---------------------------------------------------
  free energy    TOTEN  =       -22.19699471 eV

  energy without entropy =      -22.19699471  energy(sigma->0) =      -22.19699471


--------------------------------------------------------------------------------------------------------




--------------------------------------- Iteration      1(   3)  ---------------------------------------


     EDDAV:  cpu time      1.5639: real time      1.5709
 BZINTS: Fermi energy:   10.537594;   88.000000 electrons
         Band energy:-0.710155E+03;  BLOECHL correction:   -0.099365
       DOS:  cpu time      0.0007: real time      0.0007
    --------------------------------------------
      LOOP:  cpu time      1.5646: real time      1.5716

 eigenvalue-minimisations  :  2544
 total energy-change (2. order) :-0.8860547E+02  (-0.8660698E+02)
 number of electron      88.0000000 magnetization       7.6000000
 augmentation part       88.0000000 magnetization       7.6000000

 Free energy of the ion-electron system (eV)
  ---------------------------------------------------
  alpha Z        PSCENC =       302.59810663
  Ewald energy   TEWEN  =     -5968.11663197
  -Hartree energ DENC   =     -2546.02230580
  -exchange      EXHF   =         0.00000000
  -V(xc)+E(xc)   XCENC  =       265.33303149
  PAW double counting   =      5780.38886124    -5821.62866318
  entropy T*S    EENTRO =         0.00000000
  eigenvalues    EBANDS =      -710.15502580
  atomic energy  EATOM  =      8586.80016673
  Solvation  Ediel_sol  =         0.00000000
  ---------------------------------------------------
  free energy    TOTEN  =      -110.80246066 eV

  energy without entropy =     -110.80246066  energy(sigma->0) =     -110.80246066


--------------------------------------------------------------------------------------------------------




--------------------------------------- Iteration      1(   4)  ---------------------------------------


     EDDAV:  cpu time      1.5386: real time      1.5459
 BZINTS: Fermi energy:   10.486454;   88.000000 electrons
         Band energy:-0.712738E+03;  BLOECHL correction:   -0.102061
       DOS:  cpu time      0.0007: real time      0.0007
    --------------------------------------------
      LOOP:  cpu time      1.5393: real time      1.5466

 eigenvalue-minimisations  :  2496
 total energy-change (2. order) :-0.2582900E+01  (-0.2570856E+01)
 number of electron      88.0000000 magnetization       7.6000000
 augmentation part       88.0000000 magnetization       7.6000000

 Free energy of the ion-electron system (eV)
  ---------------------------------------------------
  alpha Z        PSCENC =       302.59810663
  Ewald energy   TEWEN  =     -5968.11663197
  -Hartree energ DENC   =     -2546.02230580
  -exchange      EXHF   =         0.00000000
  -V(xc)+E(xc)   XCENC  =       265.33303149
  PAW double counting   =      5780.38886124    -5821.62866318
  entropy T*S    EENTRO =         0.00000000
  eigenvalues    EBANDS =      -712.73792564
  atomic energy  EATOM  =      8586.80016673
  Solvation  Ediel_sol  =         0.00000000
  ---------------------------------------------------
  free energy    TOTEN  =      -113.38536050 eV

  energy without entropy =     -113.38536050  energy(sigma->0) =     -113.38536050


--------------------------------------------------------------------------------------------------------




--------------------------------------- Iteration      1(   5)  ---------------------------------------


     EDDAV:  cpu time      1.5462: real time      1.5531
 BZINTS: Fermi energy:   10.484277;   88.000000 electrons
         Band energy:-0.712823E+03;  BLOECHL correction:   -0.102285
       DOS:  cpu time      0.0007: real time      0.0007
    CHARGE:  cpu time      0.1130: real time      0.1134
    MIXING:  cpu time      0.0036: real time      0.0037
    --------------------------------------------
      LOOP:  cpu time      1.6635: real time      1.6710

 eigenvalue-minimisations  :  2512
 total energy-change (2. order) :-0.8479122E-01  (-0.8461162E-01)
 number of electron      88.0000039 magnetization       9.5638282
 augmentation part       21.5837587 magnetization       6.1002172

 Broyden mixing:
  rms(total) = 0.29120E+01    rms(broyden)= 0.29116E+01
  rms(prec ) = 0.62704E+01
  weight for this iteration     100.00

 Free energy of the ion-electron system (eV)
  ---------------------------------------------------
  alpha Z        PSCENC =       302.59810663
  Ewald energy   TEWEN  =     -5968.11663197
  -Hartree energ DENC   =     -2546.02230580
  -exchange      EXHF   =         0.00000000
  -V(xc)+E(xc)   XCENC  =       265.33303149
  PAW double counting   =      5780.38886124    -5821.62866318
  entropy T*S    EENTRO =         0.00000000
  eigenvalues    EBANDS =      -712.82271686
  atomic energy  EATOM  =      8586.80016673
  Solvation  Ediel_sol  =         0.00000000
  ---------------------------------------------------
  free energy    TOTEN  =      -113.47015173 eV

  energy without entropy =     -113.47015173  energy(sigma->0) =     -113.47015173


--------------------------------------------------------------------------------------------------------




--------------------------------------- Iteration      1(   6)  ---------------------------------------


    POTLOK:  cpu time      0.0454: real time      0.0492
    SETDIJ:  cpu time      0.2943: real time      0.2949
atom =   1  type =  1  l = 0
 
 onsite density matrix
 
spin component  1
 
  0.2470
 
spin component  2
 
  0.2422
 
 occupancies and eigenvectors
 
  o =  0.2422  v =  0.0000  1.0000      0.0000  0.0000
  o =  0.2470  v =  1.0000  0.0000      0.0000  0.0000
 
atom =   2  type =  1  l = 0
 
 onsite density matrix
 
spin component  1
 
  0.2470
 
spin component  2
 
  0.2422
 
 occupancies and eigenvectors
 
  o =  0.2422  v =  0.0000  1.0000      0.0000  0.0000
  o =  0.2470  v =  1.0000  0.0000      0.0000  0.0000
 
atom =   3  type =  1  l = 0
 
 onsite density matrix
 
spin component  1
 
  0.2470
 
spin component  2
 
  0.2422
 
 occupancies and eigenvectors
 
  o =  0.2422  v =  0.0000  1.0000      0.0000  0.0000
  o =  0.2470  v =  1.0000  0.0000      0.0000  0.0000
 
atom =   4  type =  1  l = 0
 
 onsite density matrix
 
spin component  1
 
  0.2470
 
spin component  2
 
  0.2422
 
 occupancies and eigenvectors
 
  o =  0.2422  v =  0.0000  1.0000      0.0000  0.0000
  o =  0.2470  v =  1.0000  0.0000      0.0000  0.0000
 
atom =   5  type =  2  l = 2
 
 onsite density matrix
 
spin component  1
 
  1.1792 -0.0000 -0.0157  0.0000  0.0091
 -0.0000  1.1792  0.0000 -0.0181 -0.0000
 -0.0157  0.0000  1.1632 -0.0000 -0.0056
  0.0000 -0.0181 -0.0000  1.1664 -0.0000
  0.0091 -0.0000 -0.0056 -0.0000  1.1568
 
spin component  2
 
 -0.0438  0.0000  0.0273 -0.0000 -0.0158
  0.0000 -0.0438 -0.0000  0.0315  0.0000
  0.0273 -0.0000 -0.0160  0.0000  0.0097
 -0.0000  0.0315  0.0000 -0.0215  0.0000
 -0.0158  0.0000  0.0097  0.0000 -0.0048
 
 occupancies and eigenvectors
 
  o = -0.0661  v =  0.0000  0.0000  0.0000  0.0000  0.0000 -0.8112  0.0924  0.4968 -0.0654 -0.2868      0.0000  0.0000  0.0000  0.0000  0.0000  0.0000  0.0000  0.0000  0.0000  0.0000
  o = -0.0661  v =  0.0000  0.0000  0.0000  0.0000  0.0000 -0.0924 -0.8112  0.0566  0.5736 -0.0327      0.0000  0.0000  0.0000  0.0000  0.0000  0.0000  0.0000  0.0000  0.0000  0.0000
  o =  0.0008  v =  0.0000  0.0000  0.0000  0.0000  0.0000 -0.2795 -0.3724 -0.0466 -0.5267  0.7097      0.0000  0.0000  0.0000  0.0000  0.0000  0.0000  0.0000  0.0000  0.0000  0.0000
  o =  0.0008  v =  0.0000  0.0000  0.0000  0.0000  0.0000 -0.2045  0.4401  0.0204  0.6224  0.6137      0.0000  0.0000  0.0000  0.0000  0.0000  0.0000  0.0000  0.0000  0.0000  0.0000
  o =  0.0008  v =  0.0000  0.0000  0.0000  0.0000  0.0000  0.4620 -0.0305  0.8645 -0.0431  0.1908      0.0000  0.0000  0.0000  0.0000  0.0000  0.0000  0.0000  0.0000  0.0000  0.0000
  o =  1.1536  v = -0.4620  0.0305 -0.8645  0.0431 -0.1908  0.0000  0.0000  0.0000  0.0000  0.0000      0.0000  0.0000  0.0000  0.0000  0.0000  0.0000  0.0000  0.0000  0.0000  0.0000
  o =  1.1536  v = -0.2045  0.4401  0.0204  0.6224  0.6137  0.0000  0.0000  0.0000  0.0000  0.0000      0.0000  0.0000  0.0000  0.0000  0.0000  0.0000  0.0000  0.0000  0.0000  0.0000
  o =  1.1536  v = -0.2795 -0.3724 -0.0466 -0.5267  0.7097  0.0000  0.0000  0.0000  0.0000  0.0000      0.0000  0.0000  0.0000  0.0000  0.0000  0.0000  0.0000  0.0000  0.0000  0.0000
  o =  1.1921  v =  0.0924  0.8112 -0.0566 -0.5736  0.0327  0.0000  0.0000  0.0000  0.0000  0.0000      0.0000  0.0000  0.0000  0.0000  0.0000  0.0000  0.0000  0.0000  0.0000  0.0000
  o =  1.1921  v = -0.8112  0.0924  0.4968 -0.0654 -0.2868  0.0000  0.0000  0.0000  0.0000  0.0000      0.0000  0.0000  0.0000  0.0000  0.0000  0.0000  0.0000  0.0000  0.0000  0.0000
 
atom =   6  type =  2  l = 2
 
 onsite density matrix
 
spin component  1
 
  1.1799 -0.0000 -0.0159  0.0000  0.0092
 -0.0000  1.1799  0.0000 -0.0183 -0.0000
 -0.0159  0.0000  1.1637 -0.0000 -0.0056
  0.0000 -0.0183 -0.0000  1.1669 -0.0000
  0.0092 -0.0000 -0.0056 -0.0000  1.1572
 
spin component  2
 
 -0.0448  0.0000  0.0277 -0.0000 -0.0160
  0.0000 -0.0448 -0.0000  0.0320  0.0000
  0.0277 -0.0000 -0.0165  0.0000  0.0098
 -0.0000  0.0320  0.0000 -0.0221  0.0000
 -0.0160  0.0000  0.0098  0.0000 -0.0051
 
 occupancies and eigenvectors
 
  o = -0.0674  v =  0.0000  0.0000  0.0000  0.0000  0.0000 -0.8112  0.0924  0.4968 -0.0654 -0.2868      0.0000  0.0000  0.0000  0.0000  0.0000  0.0000  0.0000  0.0000  0.0000  0.0000
  o = -0.0674  v =  0.0000  0.0000  0.0000  0.0000  0.0000 -0.0924 -0.8112  0.0566  0.5736 -0.0327      0.0000  0.0000  0.0000  0.0000  0.0000  0.0000  0.0000  0.0000  0.0000  0.0000
  o =  0.0005  v =  0.0000  0.0000  0.0000  0.0000  0.0000 -0.2795 -0.3724 -0.0466 -0.5267  0.7097      0.0000  0.0000  0.0000  0.0000  0.0000  0.0000  0.0000  0.0000  0.0000  0.0000
  o =  0.0005  v =  0.0000  0.0000  0.0000  0.0000  0.0000 -0.2045  0.4401  0.0204  0.6224  0.6137      0.0000  0.0000  0.0000  0.0000  0.0000  0.0000  0.0000  0.0000  0.0000  0.0000
  o =  0.0005  v =  0.0000  0.0000  0.0000  0.0000  0.0000  0.4620 -0.0305  0.8645 -0.0431  0.1908      0.0000  0.0000  0.0000  0.0000  0.0000  0.0000  0.0000  0.0000  0.0000  0.0000
  o =  1.1540  v = -0.4620  0.0305 -0.8645  0.0431 -0.1908  0.0000  0.0000  0.0000  0.0000  0.0000      0.0000  0.0000  0.0000  0.0000  0.0000  0.0000  0.0000  0.0000  0.0000  0.0000
  o =  1.1540  v = -0.2045  0.4401  0.0204  0.6224  0.6137  0.0000  0.0000  0.0000  0.0000  0.0000      0.0000  0.0000  0.0000  0.0000  0.0000  0.0000  0.0000  0.0000  0.0000  0.0000
  o =  1.1540  v = -0.2795 -0.3724 -0.0466 -0.5267  0.7097  0.0000  0.0000  0.0000  0.0000  0.0000      0.0000  0.0000  0.0000  0.0000  0.0000  0.0000  0.0000  0.0000  0.0000  0.0000
  o =  1.1928  v =  0.0924  0.8112 -0.0566 -0.5736  0.0327  0.0000  0.0000  0.0000  0.0000  0.0000      0.0000  0.0000  0.0000  0.0000  0.0000  0.0000  0.0000  0.0000  0.0000  0.0000
  o =  1.1928  v = -0.8112  0.0924  0.4968 -0.0654 -0.2868  0.0000  0.0000  0.0000  0.0000  0.0000      0.0000  0.0000  0.0000  0.0000  0.0000  0.0000  0.0000  0.0000  0.0000  0.0000
 
atom =   7  type =  3  l = 0
 
 onsite density matrix
 
spin component  1
 
  0.8095
 
spin component  2
 
  0.8153
 
 occupancies and eigenvectors
 
  o =  0.8095  v =  1.0000  0.0000      0.0000  0.0000
  o =  0.8153  v =  0.0000  1.0000      0.0000  0.0000
 
atom =   8  type =  3  l = 0
 
 onsite density matrix
 
spin component  1
 
  0.8091
 
spin component  2
 
  0.8156
 
 occupancies and eigenvectors
 
  o =  0.8091  v =  1.0000  0.0000      0.0000  0.0000
  o =  0.8156  v =  0.0000  1.0000      0.0000  0.0000
 
atom =   9  type =  3  l = 0
 
 onsite density matrix
 
spin component  1
 
  0.8091
 
spin component  2
 
  0.8156
 
 occupancies and eigenvectors
 
  o =  0.8091  v =  1.0000  0.0000      0.0000  0.0000
  o =  0.8156  v =  0.0000  1.0000      0.0000  0.0000
 
atom =  10  type =  3  l = 0
 
 onsite density matrix
 
spin component  1
 
  0.8091
 
spin component  2
 
  0.8156
 
 occupancies and eigenvectors
 
  o =  0.8091  v =  1.0000  0.0000      0.0000  0.0000
  o =  0.8156  v =  0.0000  1.0000      0.0000  0.0000
 
atom =  11  type =  3  l = 0
 
 onsite density matrix
 
spin component  1
 
  0.8095
 
spin component  2
 
  0.8153
 
 occupancies and eigenvectors
 
  o =  0.8095  v =  1.0000  0.0000      0.0000  0.0000
  o =  0.8153  v =  0.0000  1.0000      0.0000  0.0000
 
atom =  12  type =  3  l = 0
 
 onsite density matrix
 
spin component  1
 
  0.8095
 
spin component  2
 
  0.8153
 
 occupancies and eigenvectors
 
  o =  0.8095  v =  1.0000  0.0000      0.0000  0.0000
  o =  0.8153  v =  0.0000  1.0000      0.0000  0.0000
 
atom =  13  type =  3  l = 0
 
 onsite density matrix
 
spin component  1
 
  0.8091
 
spin component  2
 
  0.8156
 
 occupancies and eigenvectors
 
  o =  0.8091  v =  1.0000  0.0000      0.0000  0.0000
  o =  0.8156  v =  0.0000  1.0000      0.0000  0.0000
 
atom =  14  type =  3  l = 0
 
 onsite density matrix
 
spin component  1
 
  0.8095
 
spin component  2
 
  0.8153
 
 occupancies and eigenvectors
 
  o =  0.8095  v =  1.0000  0.0000      0.0000  0.0000
  o =  0.8153  v =  0.0000  1.0000      0.0000  0.0000
 
    EDDIAG:  cpu time      0.1369: real time      0.1377
  RMM-DIIS:  cpu time      1.2168: real time      1.2212
    ORTHCH:  cpu time      0.0089: real time      0.0091
 BZINTS: Fermi energy:    7.786047;   88.000000 electrons
         Band energy:-0.739606E+03;  BLOECHL correction:   -0.006208
       DOS:  cpu time      0.0005: real time      0.0005
    CHARGE:  cpu time      0.0985: real time      0.0987
    MIXING:  cpu time      0.0030: real time      0.0030
    --------------------------------------------
      LOOP:  cpu time      1.8044: real time      1.8143

 eigenvalue-minimisations  :  2435
 total energy-change (2. order) : 0.1565658E+02  (-0.9392182E+01)
 number of electron      88.0000041 magnetization       8.2959468
 augmentation part       23.1717625 magnetization       6.2852407

 Broyden mixing:
  rms(total) = 0.14282E+01    rms(broyden)= 0.14277E+01
  rms(prec ) = 0.22610E+01
  weight for this iteration     100.00

 eigenvalues of (default mixing * dielectric matrix)
  average eigenvalue GAMMA=   0.6577
  0.6577

 Free energy of the ion-electron system (eV)
  ---------------------------------------------------
  alpha Z        PSCENC =       302.59810663
  Ewald energy   TEWEN  =     -5968.11663197
  -Hartree energ DENC   =     -2533.45587076
  -exchange      EXHF   =         0.00000000
  -V(xc)+E(xc)   XCENC  =       272.90159959
  PAW double counting   =      5891.11352220    -5910.04868935
  entropy T*S    EENTRO =         0.00000000
  eigenvalues    EBANDS =      -739.60577140
  atomic energy  EATOM  =      8586.80016673
  Solvation  Ediel_sol  =         0.00000000
  ---------------------------------------------------
  free energy    TOTEN  =       -97.81356833 eV

  energy without entropy =      -97.81356833  energy(sigma->0) =      -97.81356833


--------------------------------------------------------------------------------------------------------




--------------------------------------- Iteration      1(   7)  ---------------------------------------


    POTLOK:  cpu time      0.0439: real time      0.0441
    SETDIJ:  cpu time      0.2879: real time      0.2883
atom =   1  type =  1  l = 0
 
 onsite density matrix
 
spin component  1
 
  0.2169
 
spin component  2
 
  0.2165
 
 occupancies and eigenvectors
 
  o =  0.2165  v =  0.0000  1.0000      0.0000  0.0000
  o =  0.2169  v =  1.0000  0.0000      0.0000  0.0000
 
atom =   2  type =  1  l = 0
 
 onsite density matrix
 
spin component  1
 
  0.2169
 
spin component  2
 
  0.2165
 
 occupancies and eigenvectors
 
  o =  0.2165  v =  0.0000  1.0000      0.0000  0.0000
  o =  0.2169  v =  1.0000  0.0000      0.0000  0.0000
 
atom =   3  type =  1  l = 0
 
 onsite density matrix
 
spin component  1
 
  0.2169
 
spin component  2
 
  0.2165
 
 occupancies and eigenvectors
 
  o =  0.2165  v =  0.0000  1.0000      0.0000  0.0000
  o =  0.2169  v =  1.0000  0.0000      0.0000  0.0000
 
atom =   4  type =  1  l = 0
 
 onsite density matrix
 
spin component  1
 
  0.2169
 
spin component  2
 
  0.2165
 
 occupancies and eigenvectors
 
  o =  0.2165  v =  0.0000  1.0000      0.0000  0.0000
  o =  0.2169  v =  1.0000  0.0000      0.0000  0.0000
 
atom =   5  type =  2  l = 2
 
 onsite density matrix
 
spin component  1
 
  0.9131 -0.0000 -0.0268  0.0000  0.0155
 -0.0000  0.9131  0.0000 -0.0310 -0.0000
 -0.0268  0.0000  0.8857 -0.0000 -0.0095
  0.0000 -0.0310 -0.0000  0.8911 -0.0000
  0.0155 -0.0000 -0.0095 -0.0000  0.8747
 
spin component  2
 
  0.2242  0.0000  0.0691 -0.0000 -0.0399
  0.0000  0.2242  0.0000  0.0798 -0.0000
  0.0691  0.0000  0.2948  0.0000  0.0244
 -0.0000  0.0798  0.0000  0.2807 -0.0000
 -0.0399 -0.0000  0.0244 -0.0000  0.3230
 
 occupancies and eigenvectors
 
  o =  0.1678  v =  0.0000  0.0000  0.0000  0.0000  0.0000  0.8112 -0.0924 -0.4968  0.0654  0.2868      0.0000  0.0000  0.0000  0.0000  0.0000  0.0000  0.0000  0.0000  0.0000  0.0000
  o =  0.1678  v =  0.0000  0.0000  0.0000  0.0000  0.0000 -0.0924 -0.8112  0.0566  0.5736 -0.0327      0.0000  0.0000  0.0000  0.0000  0.0000  0.0000  0.0000  0.0000  0.0000  0.0000
  o =  0.3371  v =  0.0000  0.0000  0.0000  0.0000  0.0000  0.4620 -0.0305  0.8645 -0.0431  0.1908      0.0000  0.0000  0.0000  0.0000  0.0000  0.0000  0.0000  0.0000  0.0000  0.0000
  o =  0.3371  v =  0.0000  0.0000  0.0000  0.0000  0.0000 -0.2045  0.4401  0.0204  0.6224  0.6137      0.0000  0.0000  0.0000  0.0000  0.0000  0.0000  0.0000  0.0000  0.0000  0.0000
  o =  0.3371  v =  0.0000  0.0000  0.0000  0.0000  0.0000  0.2795  0.3724  0.0466  0.5267 -0.7097      0.0000  0.0000  0.0000  0.0000  0.0000  0.0000  0.0000  0.0000  0.0000  0.0000
  o =  0.8692  v = -0.4620  0.0305 -0.8645  0.0431 -0.1908  0.0000  0.0000  0.0000  0.0000  0.0000      0.0000  0.0000  0.0000  0.0000  0.0000  0.0000  0.0000  0.0000  0.0000  0.0000
  o =  0.8692  v = -0.2045  0.4401  0.0204  0.6224  0.6137  0.0000  0.0000  0.0000  0.0000  0.0000      0.0000  0.0000  0.0000  0.0000  0.0000  0.0000  0.0000  0.0000  0.0000  0.0000
  o =  0.8692  v = -0.2795 -0.3724 -0.0466 -0.5267  0.7097  0.0000  0.0000  0.0000  0.0000  0.0000      0.0000  0.0000  0.0000  0.0000  0.0000  0.0000  0.0000  0.0000  0.0000  0.0000
  o =  0.9350  v =  0.0924  0.8112 -0.0566 -0.5736  0.0327  0.0000  0.0000  0.0000  0.0000  0.0000      0.0000  0.0000  0.0000  0.0000  0.0000  0.0000  0.0000  0.0000  0.0000  0.0000
  o =  0.9350  v = -0.8112  0.0924  0.4968 -0.0654 -0.2868  0.0000  0.0000  0.0000  0.0000  0.0000      0.0000  0.0000  0.0000  0.0000  0.0000  0.0000  0.0000  0.0000  0.0000  0.0000
 
atom =   6  type =  2  l = 2
 
 onsite density matrix
 
spin component  1
 
  0.9094 -0.0000 -0.0273  0.0000  0.0158
 -0.0000  0.9094  0.0000 -0.0315 -0.0000
 -0.0273  0.0000  0.8815 -0.0000 -0.0096
  0.0000 -0.0315 -0.0000  0.8871 -0.0000
  0.0158 -0.0000 -0.0096 -0.0000  0.8704
 
spin component  2
 
  0.2301  0.0000  0.0701 -0.0000 -0.0405
  0.0000  0.2301  0.0000  0.0809 -0.0000
  0.0701  0.0000  0.3016  0.0000  0.0248
 -0.0000  0.0809  0.0000  0.2873 -0.0000
 -0.0405 -0.0000  0.0248 -0.0000  0.3302
 
 occupancies and eigenvectors
 
  o =  0.1729  v =  0.0000  0.0000  0.0000  0.0000  0.0000  0.8112 -0.0924 -0.4968  0.0654  0.2868      0.0000  0.0000  0.0000  0.0000  0.0000  0.0000  0.0000  0.0000  0.0000  0.0000
  o =  0.1729  v =  0.0000  0.0000  0.0000  0.0000  0.0000 -0.0924 -0.8112  0.0566  0.5736 -0.0327      0.0000  0.0000  0.0000  0.0000  0.0000  0.0000  0.0000  0.0000  0.0000  0.0000
  o =  0.3445  v =  0.0000  0.0000  0.0000  0.0000  0.0000  0.4620 -0.0305  0.8645 -0.0431  0.1908      0.0000  0.0000  0.0000  0.0000  0.0000  0.0000  0.0000  0.0000  0.0000  0.0000
  o =  0.3445  v =  0.0000  0.0000  0.0000  0.0000  0.0000 -0.2045  0.4401  0.0204  0.6224  0.6137      0.0000  0.0000  0.0000  0.0000  0.0000  0.0000  0.0000  0.0000  0.0000  0.0000
  o =  0.3445  v =  0.0000  0.0000  0.0000  0.0000  0.0000  0.2795  0.3724  0.0466  0.5267 -0.7097      0.0000  0.0000  0.0000  0.0000  0.0000  0.0000  0.0000  0.0000  0.0000  0.0000
  o =  0.8648  v = -0.4620  0.0305 -0.8645  0.0431 -0.1908  0.0000  0.0000  0.0000  0.0000  0.0000      0.0000  0.0000  0.0000  0.0000  0.0000  0.0000  0.0000  0.0000  0.0000  0.0000
  o =  0.8648  v = -0.2045  0.4401  0.0204  0.6224  0.6137  0.0000  0.0000  0.0000  0.0000  0.0000      0.0000  0.0000  0.0000  0.0000  0.0000  0.0000  0.0000  0.0000  0.0000  0.0000
  o =  0.8648  v = -0.2795 -0.3724 -0.0466 -0.5267  0.7097  0.0000  0.0000  0.0000  0.0000  0.0000      0.0000  0.0000  0.0000  0.0000  0.0000  0.0000  0.0000  0.0000  0.0000  0.0000
  o =  0.9317  v =  0.0924  0.8112 -0.0566 -0.5736  0.0327  0.0000  0.0000  0.0000  0.0000  0.0000      0.0000  0.0000  0.0000  0.0000  0.0000  0.0000  0.0000  0.0000  0.0000  0.0000
  o =  0.9317  v = -0.8112  0.0924  0.4968 -0.0654 -0.2868  0.0000  0.0000  0.0000  0.0000  0.0000      0.0000  0.0000  0.0000  0.0000  0.0000  0.0000  0.0000  0.0000  0.0000  0.0000
 
atom =   7  type =  3  l = 0
 
 onsite density matrix
 
spin component  1
 
  0.8028
 
spin component  2
 
  0.7992
 
 occupancies and eigenvectors
 
  o =  0.7992  v =  0.0000  1.0000      0.0000  0.0000
  o =  0.8028  v =  1.0000  0.0000      0.0000  0.0000
 
atom =   8  type =  3  l = 0
 
 onsite density matrix
 
spin component  1
 
  0.8028
 
spin component  2
 
  0.7991
 
 occupancies and eigenvectors
 
  o =  0.7991  v =  0.0000  1.0000      0.0000  0.0000
  o =  0.8028  v =  1.0000  0.0000      0.0000  0.0000
 
atom =   9  type =  3  l = 0
 
 onsite density matrix
 
spin component  1
 
  0.8028
 
spin component  2
 
  0.7991
 
 occupancies and eigenvectors
 
  o =  0.7991  v =  0.0000  1.0000      0.0000  0.0000
  o =  0.8028  v =  1.0000  0.0000      0.0000  0.0000
 
atom =  10  type =  3  l = 0
 
 onsite density matrix
 
spin component  1
 
  0.8028
 
spin component  2
 
  0.7991
 
 occupancies and eigenvectors
 
  o =  0.7991  v =  0.0000  1.0000      0.0000  0.0000
  o =  0.8028  v =  1.0000  0.0000      0.0000  0.0000
 
atom =  11  type =  3  l = 0
 
 onsite density matrix
 
spin component  1
 
  0.8028
 
spin component  2
 
  0.7992
 
 occupancies and eigenvectors
 
  o =  0.7992  v =  0.0000  1.0000      0.0000  0.0000
  o =  0.8028  v =  1.0000  0.0000      0.0000  0.0000
 
atom =  12  type =  3  l = 0
 
 onsite density matrix
 
spin component  1
 
  0.8028
 
spin component  2
 
  0.7992
 
 occupancies and eigenvectors
 
  o =  0.7992  v =  0.0000  1.0000      0.0000  0.0000
  o =  0.8028  v =  1.0000  0.0000      0.0000  0.0000
 
atom =  13  type =  3  l = 0
 
 onsite density matrix
 
spin component  1
 
  0.8028
 
spin component  2
 
  0.7991
 
 occupancies and eigenvectors
 
  o =  0.7991  v =  0.0000  1.0000      0.0000  0.0000
  o =  0.8028  v =  1.0000  0.0000      0.0000  0.0000
 
atom =  14  type =  3  l = 0
 
 onsite density matrix
 
spin component  1
 
  0.8028
 
spin component  2
 
  0.7992
 
 occupancies and eigenvectors
 
  o =  0.7992  v =  0.0000  1.0000      0.0000  0.0000
  o =  0.8028  v =  1.0000  0.0000      0.0000  0.0000
 
    EDDIAG:  cpu time      0.1376: real time      0.1400
  RMM-DIIS:  cpu time      1.0723: real time      1.0761
    ORTHCH:  cpu time      0.0088: real time      0.0088
 BZINTS: Fermi energy:    8.211423;   88.000000 electrons
         Band energy:-0.654660E+03;  BLOECHL correction:   -0.005128
       DOS:  cpu time      0.0005: real time      0.0005
    CHARGE:  cpu time      0.0967: real time      0.0970
    MIXING:  cpu time      0.0029: real time      0.0029
    --------------------------------------------
      LOOP:  cpu time      1.6506: real time      1.6577

 eigenvalue-minimisations  :  2124
 total energy-change (2. order) :-0.7176006E+00  (-0.1967388E+01)
 number of electron      88.0000043 magnetization       8.0588270
 augmentation part       22.3818060 magnetization       5.8011228

 Broyden mixing:
  rms(total) = 0.56665E+00    rms(broyden)= 0.56651E+00
  rms(prec ) = 0.89879E+00
  weight for this iteration     100.00

 eigenvalues of (default mixing * dielectric matrix)
  average eigenvalue GAMMA=   0.7060
  0.7060  0.7060

 Free energy of the ion-electron system (eV)
  ---------------------------------------------------
  alpha Z        PSCENC =       302.59810663
  Ewald energy   TEWEN  =     -5968.11663197
  -Hartree energ DENC   =     -2591.08438169
  -exchange      EXHF   =         0.00000000
  -V(xc)+E(xc)   XCENC  =       273.80352947
  PAW double counting   =      6063.59150091    -6111.46310301
  entropy T*S    EENTRO =         0.00000000
  eigenvalues    EBANDS =      -654.66035598
  atomic energy  EATOM  =      8586.80016673
  Solvation  Ediel_sol  =         0.00000000
  ---------------------------------------------------
  free energy    TOTEN  =       -98.53116892 eV

  energy without entropy =      -98.53116892  energy(sigma->0) =      -98.53116892


--------------------------------------------------------------------------------------------------------




--------------------------------------- Iteration      1(   8)  ---------------------------------------


    POTLOK:  cpu time      0.0434: real time      0.0436
    SETDIJ:  cpu time      0.2883: real time      0.2887
atom =   1  type =  1  l = 0
 
 onsite density matrix
 
spin component  1
 
  0.1944
 
spin component  2
 
  0.1976
 
 occupancies and eigenvectors
 
  o =  0.1944  v =  1.0000  0.0000      0.0000  0.0000
  o =  0.1976  v =  0.0000  1.0000      0.0000  0.0000
 
atom =   2  type =  1  l = 0
 
 onsite density matrix
 
spin component  1
 
  0.1944
 
spin component  2
 
  0.1976
 
 occupancies and eigenvectors
 
  o =  0.1944  v =  1.0000  0.0000      0.0000  0.0000
  o =  0.1976  v =  0.0000  1.0000      0.0000  0.0000
 
atom =   3  type =  1  l = 0
 
 onsite density matrix
 
spin component  1
 
  0.1944
 
spin component  2
 
  0.1976
 
 occupancies and eigenvectors
 
  o =  0.1944  v =  1.0000  0.0000      0.0000  0.0000
  o =  0.1976  v =  0.0000  1.0000      0.0000  0.0000
 
atom =   4  type =  1  l = 0
 
 onsite density matrix
 
spin component  1
 
  0.1944
 
spin component  2
 
  0.1976
 
 occupancies and eigenvectors
 
  o =  0.1944  v =  1.0000  0.0000      0.0000  0.0000
  o =  0.1976  v =  0.0000  1.0000      0.0000  0.0000
 
atom =   5  type =  2  l = 2
 
 onsite density matrix
 
spin component  1
 
  1.0087 -0.0000 -0.0410  0.0000  0.0237
 -0.0000  1.0086  0.0000 -0.0473 -0.0000
 -0.0410  0.0000  0.9668 -0.0000 -0.0145
  0.0000 -0.0473 -0.0000  0.9752 -0.0000
  0.0237 -0.0000 -0.0145 -0.0000  0.9501
 
spin component  2
 
  0.1200  0.0000  0.1229 -0.0000 -0.0709
  0.0000  0.1200 -0.0000  0.1419 -0.0000
  0.1229 -0.0000  0.2454  0.0000  0.0434
 -0.0000  0.1419  0.0000  0.2204 -0.0000
 -0.0709 -0.0000  0.0434 -0.0000  0.2956
 
 occupancies and eigenvectors
 
  o =  0.0197  v =  0.0000  0.0000  0.0000  0.0000  0.0000  0.8112 -0.0924 -0.4968  0.0654  0.2868      0.0000  0.0000  0.0000  0.0000  0.0000  0.0000  0.0000  0.0000  0.0000  0.0000
  o =  0.0197  v =  0.0000  0.0000  0.0000  0.0000  0.0000 -0.0924 -0.8112  0.0566  0.5736 -0.0327      0.0000  0.0000  0.0000  0.0000  0.0000  0.0000  0.0000  0.0000  0.0000  0.0000
  o =  0.3207  v =  0.0000  0.0000  0.0000  0.0000  0.0000  0.4620 -0.0305  0.8645 -0.0431  0.1908      0.0000  0.0000  0.0000  0.0000  0.0000  0.0000  0.0000  0.0000  0.0000  0.0000
  o =  0.3207  v =  0.0000  0.0000  0.0000  0.0000  0.0000 -0.2045  0.4401  0.0204  0.6224  0.6137      0.0000  0.0000  0.0000  0.0000  0.0000  0.0000  0.0000  0.0000  0.0000  0.0000
  o =  0.3207  v =  0.0000  0.0000  0.0000  0.0000  0.0000  0.2795  0.3724  0.0466  0.5267 -0.7097      0.0000  0.0000  0.0000  0.0000  0.0000  0.0000  0.0000  0.0000  0.0000  0.0000
  o =  0.9417  v = -0.4620  0.0305 -0.8645  0.0431 -0.1908  0.0000  0.0000  0.0000  0.0000  0.0000      0.0000  0.0000  0.0000  0.0000  0.0000  0.0000  0.0000  0.0000  0.0000  0.0000
  o =  0.9417  v = -0.2045  0.4401  0.0204  0.6224  0.6137  0.0000  0.0000  0.0000  0.0000  0.0000      0.0000  0.0000  0.0000  0.0000  0.0000  0.0000  0.0000  0.0000  0.0000  0.0000
  o =  0.9417  v = -0.2795 -0.3724 -0.0466 -0.5267  0.7097  0.0000  0.0000  0.0000  0.0000  0.0000      0.0000  0.0000  0.0000  0.0000  0.0000  0.0000  0.0000  0.0000  0.0000  0.0000
  o =  1.0421  v =  0.0924  0.8112 -0.0566 -0.5736  0.0327  0.0000  0.0000  0.0000  0.0000  0.0000      0.0000  0.0000  0.0000  0.0000  0.0000  0.0000  0.0000  0.0000  0.0000  0.0000
  o =  1.0421  v = -0.8112  0.0924  0.4968 -0.0654 -0.2868  0.0000  0.0000  0.0000  0.0000  0.0000      0.0000  0.0000  0.0000  0.0000  0.0000  0.0000  0.0000  0.0000  0.0000  0.0000
 
atom =   6  type =  2  l = 2
 
 onsite density matrix
 
spin component  1
 
  1.0311 -0.0000 -0.0182  0.0000  0.0105
 -0.0000  1.0311  0.0000 -0.0210 -0.0000
 -0.0182  0.0000  1.0125 -0.0000 -0.0064
  0.0000 -0.0210 -0.0000  1.0162 -0.0000
  0.0105 -0.0000 -0.0064 -0.0000  1.0051
 
spin component  2
 
  0.0858  0.0000  0.0852 -0.0000 -0.0492
  0.0000  0.0858 -0.0000  0.0983  0.0000
  0.0852 -0.0000  0.1727  0.0000  0.0301
 -0.0000  0.0983  0.0000  0.1554 -0.0000
 -0.0492  0.0000  0.0301 -0.0000  0.2075
 
 occupancies and eigenvectors
 
  o =  0.0163  v =  0.0000  0.0000  0.0000  0.0000  0.0000  0.8112 -0.0924 -0.4968  0.0654  0.2868      0.0000  0.0000  0.0000  0.0000  0.0000  0.0000  0.0000  0.0000  0.0000  0.0000
  o =  0.0163  v =  0.0000  0.0000  0.0000  0.0000  0.0000 -0.0924 -0.8112  0.0566  0.5736 -0.0327      0.0000  0.0000  0.0000  0.0000  0.0000  0.0000  0.0000  0.0000  0.0000  0.0000
  o =  0.2249  v =  0.0000  0.0000  0.0000  0.0000  0.0000 -0.4620  0.0305 -0.8645  0.0431 -0.1908      0.0000  0.0000  0.0000  0.0000  0.0000  0.0000  0.0000  0.0000  0.0000  0.0000
  o =  0.2249  v =  0.0000  0.0000  0.0000  0.0000  0.0000  0.2045 -0.4401 -0.0204 -0.6224 -0.6137      0.0000  0.0000  0.0000  0.0000  0.0000  0.0000  0.0000  0.0000  0.0000  0.0000
  o =  0.2249  v =  0.0000  0.0000  0.0000  0.0000  0.0000  0.2795  0.3724  0.0466  0.5267 -0.7097      0.0000  0.0000  0.0000  0.0000  0.0000  0.0000  0.0000  0.0000  0.0000  0.0000
  o =  1.0014  v = -0.4620  0.0305 -0.8645  0.0431 -0.1908  0.0000  0.0000  0.0000  0.0000  0.0000      0.0000  0.0000  0.0000  0.0000  0.0000  0.0000  0.0000  0.0000  0.0000  0.0000
  o =  1.0014  v = -0.2045  0.4401  0.0204  0.6224  0.6137  0.0000  0.0000  0.0000  0.0000  0.0000      0.0000  0.0000  0.0000  0.0000  0.0000  0.0000  0.0000  0.0000  0.0000  0.0000
  o =  1.0014  v = -0.2795 -0.3724 -0.0466 -0.5267  0.7097  0.0000  0.0000  0.0000  0.0000  0.0000      0.0000  0.0000  0.0000  0.0000  0.0000  0.0000  0.0000  0.0000  0.0000  0.0000
  o =  1.0459  v =  0.0924  0.8112 -0.0566 -0.5736  0.0327  0.0000  0.0000  0.0000  0.0000  0.0000      0.0000  0.0000  0.0000  0.0000  0.0000  0.0000  0.0000  0.0000  0.0000  0.0000
  o =  1.0459  v = -0.8112  0.0924  0.4968 -0.0654 -0.2868  0.0000  0.0000  0.0000  0.0000  0.0000      0.0000  0.0000  0.0000  0.0000  0.0000  0.0000  0.0000  0.0000  0.0000  0.0000
 
atom =   7  type =  3  l = 0
 
 onsite density matrix
 
spin component  1
 
  0.7928
 
spin component  2
 
  0.7915
 
 occupancies and eigenvectors
 
  o =  0.7915  v =  0.0000  1.0000      0.0000  0.0000
  o =  0.7928  v =  1.0000  0.0000      0.0000  0.0000
 
atom =   8  type =  3  l = 0
 
 onsite density matrix
 
spin component  1
 
  0.7930
 
spin component  2
 
  0.7911
 
 occupancies and eigenvectors
 
  o =  0.7911  v =  0.0000  1.0000      0.0000  0.0000
  o =  0.7930  v =  1.0000  0.0000      0.0000  0.0000
 
atom =   9  type =  3  l = 0
 
 onsite density matrix
 
spin component  1
 
  0.7930
 
spin component  2
 
  0.7911
 
 occupancies and eigenvectors
 
  o =  0.7911  v =  0.0000  1.0000      0.0000  0.0000
  o =  0.7930  v =  1.0000  0.0000      0.0000  0.0000
 
atom =  10  type =  3  l = 0
 
 onsite density matrix
 
spin component  1
 
  0.7930
 
spin component  2
 
  0.7911
 
 occupancies and eigenvectors
 
  o =  0.7911  v =  0.0000  1.0000      0.0000  0.0000
  o =  0.7930  v =  1.0000  0.0000      0.0000  0.0000
 
atom =  11  type =  3  l = 0
 
 onsite density matrix
 
spin component  1
 
  0.7928
 
spin component  2
 
  0.7915
 
 occupancies and eigenvectors
 
  o =  0.7915  v =  0.0000  1.0000      0.0000  0.0000
  o =  0.7928  v =  1.0000  0.0000      0.0000  0.0000
 
atom =  12  type =  3  l = 0
 
 onsite density matrix
 
spin component  1
 
  0.7928
 
spin component  2
 
  0.7915
 
 occupancies and eigenvectors
 
  o =  0.7915  v =  0.0000  1.0000      0.0000  0.0000
  o =  0.7928  v =  1.0000  0.0000      0.0000  0.0000
 
atom =  13  type =  3  l = 0
 
 onsite density matrix
 
spin component  1
 
  0.7930
 
spin component  2
 
  0.7911
 
 occupancies and eigenvectors
 
  o =  0.7911  v =  0.0000  1.0000      0.0000  0.0000
  o =  0.7930  v =  1.0000  0.0000      0.0000  0.0000
 
atom =  14  type =  3  l = 0
 
 onsite density matrix
 
spin component  1
 
  0.7928
 
spin component  2
 
  0.7915
 
 occupancies and eigenvectors
 
[...]
      5     -44.8384      1.00000
      6     -44.8384      1.00000
      7     -13.7385      1.00000
      8     -13.7356      1.00000
      9     -12.5594      1.00000
     10     -12.5593      1.00000
     11     -12.4467      1.00000
     12     -12.4430      1.00000
     13     -12.0810      1.00000
     14     -12.0809      1.00000
     15      -0.6708      1.00000
     16      -0.6707      1.00000
     17      -0.5651      1.00000
     18      -0.5598      1.00000
     19      -0.0529      1.00000
     20      -0.0494      1.00000
     21       0.4103      1.00000
     22       0.4108      1.00000
     23       0.6537      1.00000
     24       0.6557      1.00000
     25       1.1198      1.00000
     26       1.1199      1.00000
     27       2.1409      1.00000
     28       2.1464      1.00000
     29       2.1474      1.00000
     30       2.1474      1.00000
     31       2.6457      1.00000
     32       2.6457      1.00000
     33       2.6495      1.00000
     34       2.6495      1.00000
     35       3.1461      1.00000
     36       3.1483      1.00000
     37       3.4066      1.00000
     38       3.4067      1.00000
     39       8.0595      1.00000
     40       8.0595      0.68122
     41       8.1576     -0.05603
     42       8.1775      0.00000
     43       8.8080      0.00000
     44       8.8081      0.00000
     45       9.7435      0.00000
     46       9.7869      0.00000
     47       9.9804      0.00000
     48      10.0249      0.00000
     49      11.8576      0.00000
     50      11.8589      0.00000
     51      13.6860      0.00000
     52      13.6862      0.00000
     53      14.0058      0.00000
     54      14.0087      0.00000
     55      15.4119      0.00000
     56      15.4119      0.00000
     57      16.0584      0.00000
     58      16.0617      0.00000
     59      16.6421      0.00000
     60      16.6422      0.00000
     61      16.8867      0.00000
     62      16.8869      0.00000
     63      17.3919      0.00000
     64      17.3951      0.00000

 k-point     8 :      -0.2500    0.5000    0.2500
  band No.  band energies     occupation 
      1     -44.8912      1.00000
      2     -44.8912      1.00000
      3     -44.8911      1.00000
      4     -44.8385      1.00000
      5     -44.8384      1.00000
      6     -44.8384      1.00000
      7     -13.7318      1.00000
      8     -13.7288      1.00000
      9     -12.6714      1.00000
     10     -12.6699      1.00000
     11     -12.2697      1.00000
     12     -12.2662      1.00000
     13     -12.1545      1.00000
     14     -12.1532      1.00000
     15      -0.6669      1.00000
     16      -0.6663      1.00000
     17      -0.5495      1.00000
     18      -0.5439      1.00000
     19       0.1012      1.00000
     20       0.1042      1.00000
     21       0.4005      1.00000
     22       0.4016      1.00000
     23       0.4541      1.00000
     24       0.4549      1.00000
     25       0.9432      1.00000
     26       0.9439      1.00000
     27       2.1336      1.00000
     28       2.1337      1.00000
     29       2.4602      1.00000
     30       2.4610      1.00000
     31       2.7131      1.00000
     32       2.7170      1.00000
     33       2.7425      1.00000
     34       2.7458      1.00000
     35       2.9999      1.00000
     36       3.0019      1.00000
     37       3.3102      1.00000
     38       3.3120      1.00000
     39       7.9836      1.00000
     40       7.9876      1.33258
     41       8.2888      0.00000
     42       8.3078      0.00000
     43       8.6787      0.00000
     44       8.6822      0.00000
     45       9.8332      0.00000
     46       9.8768      0.00000
     47       9.9176      0.00000
     48       9.9615      0.00000
     49      12.1438      0.00000
     50      12.1452      0.00000
     51      12.9084      0.00000
     52      12.9085      0.00000
     53      14.7943      0.00000
     54      14.7944      0.00000
     55      15.5600      0.00000
     56      15.5601      0.00000
     57      15.6876      0.00000
     58      15.6893      0.00000
     59      16.5910      0.00000
     60      16.5922      0.00000
     61      16.7097      0.00000
     62      16.7104      0.00000
     63      17.0911      0.00000
     64      17.0912      0.00000


--------------------------------------------------------------------------------------------------------


 soft charge-density along one line, spin component           1
         0         1         2         3         4         5         6         7         8         9
 total charge-density along one line
 
 soft charge-density along one line, spin component           2
         0         1         2         3         4         5         6         7         8         9
 total charge-density along one line
 
 pseudopotential strength for first ion, spin component:           1
  8.459  -0.004   0.000   0.000   0.000   0.000   0.000  -0.000
 -0.004   0.000  -0.000  -0.000  -0.000  -0.000  -0.000   0.000
  0.000  -0.000   1.978   0.000   0.000  -0.023  -0.000  -0.000
  0.000  -0.000   0.000   1.978   0.000  -0.000  -0.023  -0.000
  0.000  -0.000   0.000   0.000   1.978  -0.000  -0.000  -0.023
  0.000  -0.000  -0.023  -0.000  -0.000  -0.013   0.000   0.000
  0.000  -0.000  -0.000  -0.023  -0.000   0.000  -0.013   0.000
 -0.000   0.000  -0.000  -0.000  -0.023   0.000   0.000  -0.013
 pseudopotential strength for first ion, spin component:           2
  8.459  -0.004   0.000   0.000  -0.000   0.000   0.000  -0.000
 -0.004   0.000   0.000   0.000   0.000  -0.000  -0.000  -0.000
  0.000   0.000   1.978   0.000   0.000  -0.023  -0.000  -0.000
  0.000   0.000   0.000   1.978   0.000  -0.000  -0.023  -0.000
 -0.000   0.000   0.000   0.000   1.978  -0.000  -0.000  -0.023
  0.000  -0.000  -0.023  -0.000  -0.000  -0.013   0.000   0.000
  0.000  -0.000  -0.000  -0.023  -0.000   0.000  -0.013   0.000
 -0.000  -0.000  -0.000  -0.000  -0.023   0.000   0.000  -0.013
 total augmentation occupancy for first ion, spin component:           1
  0.885  -0.837  -0.000  -0.000  -0.000  -0.000  -0.000  -0.000
 -0.837   1.180  -0.000  -0.000  -0.000   0.000   0.000   0.000
 -0.000  -0.000   0.760   0.026   0.015  -0.252  -0.016  -0.009
 -0.000  -0.000   0.026   0.813   0.037  -0.016  -0.284  -0.022
 -0.000  -0.000   0.015   0.037   0.770  -0.009  -0.022  -0.259
 -0.000   0.000  -0.252  -0.016  -0.009   0.097   0.009   0.005
 -0.000   0.000  -0.016  -0.284  -0.022   0.009   0.115   0.013
 -0.000   0.000  -0.009  -0.022  -0.259   0.005   0.013   0.101
 total augmentation occupancy for first ion, spin component:           2
 -0.004  -0.006   0.000   0.000   0.000  -0.000  -0.000  -0.000
 -0.006  -0.008   0.000   0.000   0.000   0.000   0.000   0.000
  0.000   0.000   0.003   0.000   0.000  -0.000  -0.000  -0.000
  0.000   0.000   0.000   0.003   0.000  -0.000  -0.001  -0.000
  0.000   0.000   0.000   0.000   0.003  -0.000  -0.000  -0.000
 -0.000   0.000  -0.000  -0.000  -0.000  -0.000   0.000   0.000
 -0.000   0.000  -0.000  -0.001  -0.000   0.000  -0.000   0.000
 -0.000   0.000  -0.000  -0.000  -0.000   0.000   0.000  -0.000


------------------------ aborting loop because EDIFF is reached ----------------------------------------





 total charge

# of ion       s       p       d       tot
------------------------------------------
    1        0.309   0.381   0.000   0.689
    2        0.309   0.381   0.000   0.689
    3        0.309   0.381   0.000   0.689
    4        0.309   0.381   0.000   0.689
    5        0.256   6.299   5.933  12.488
    6        0.256   6.298   5.889  12.443
    7        1.549   3.581   0.000   5.130
    8        1.549   3.581   0.000   5.130
    9        1.549   3.581   0.000   5.130
   10        1.549   3.581   0.000   5.130
   11        1.549   3.581   0.000   5.130
   12        1.549   3.581   0.000   5.130
   13        1.549   3.581   0.000   5.130
   14        1.549   3.581   0.000   5.130
--------------------------------------------------
tot         14.139  42.768  11.822  68.729



 magnetization (x)

# of ion       s       p       d       tot
------------------------------------------
    1       -0.001   0.002   0.000   0.001
    2       -0.001   0.002   0.000   0.001
    3       -0.001   0.002   0.000   0.001
    4       -0.001   0.002   0.000   0.001
    5        0.022   0.027   3.741   3.790
    6        0.022   0.028   3.783   3.833
    7        0.002   0.040   0.000   0.042
    8        0.002   0.040   0.000   0.043
    9        0.002   0.040   0.000   0.043
   10        0.002   0.040   0.000   0.043
   11        0.002   0.040   0.000   0.042
   12        0.002   0.040   0.000   0.042
   13        0.002   0.040   0.000   0.043
   14        0.002   0.040   0.000   0.042
--------------------------------------------------
tot          0.058   0.383   7.524   7.965
 
    CHARGE:  cpu time      0.0955: real time      0.0958
    FORLOC:  cpu time      0.0040: real time      0.0040
    FORNL :  cpu time      0.4641: real time      0.4662
    STRESS:  cpu time      1.3802: real time      1.3853
    FORCOR:  cpu time      0.0424: real time      0.0425
    FORHAR:  cpu time      0.0063: real time      0.0064
    MIXING:  cpu time      0.0024: real time      0.0024
    OFIELD:  cpu time      0.0000: real time      0.0000

  FORCE on cell =-STRESS in cart. coord.  units (eV):
  Direction    XX          YY          ZZ          XY          YZ          ZX
  --------------------------------------------------------------------------------------
  Alpha Z   292.65039   292.65039   292.65039
  Ewald   -1968.09788 -1968.09968 -1968.09830     0.00312     0.00159    -0.00068
  Hartree   876.92534   876.92396   876.92274     0.00206     0.00051    -0.00033
  E(xc)    -462.21381  -462.21383  -462.21393     0.00002    -0.00002    -0.00005
  Local     -66.32746   -66.32349   -66.32140    -0.00583    -0.00192     0.00092
  n-local  -278.42333  -279.40447  -278.71205     1.51197     0.08177    -0.05440
  augment   192.03564   192.03535   192.03462     0.00029    -0.00004    -0.00021
  Kinetic  1405.89188  1416.03249  1420.25275    -1.39467    -0.53339     0.36881
  Fock        0.00000     0.00000     0.00000     0.00000     0.00000     0.00000
  -------------------------------------------------------------------------------------
  Total       0.18545     0.18545     0.18545     0.00000     0.00000    -0.00000
  in kB       2.14159     2.14158     2.14158     0.00001     0.00000    -0.00000
  external pressure =        2.14 kB  Pullay stress =        0.00 kB


 VOLUME and BASIS-vectors are now :
 -----------------------------------------------------------------------------
  energy-cutoff  :      520.00
  volume of cell :      138.74
      direct lattice vectors                 reciprocal lattice vectors
     5.032333679  0.000008242  2.905413529     0.198715043 -0.070256635  0.000000060
     1.677449398  4.744528429  2.905415598    -0.000000302  0.210769256 -0.000000075
    -0.000001022  0.000002072  5.810827087    -0.099357370 -0.070256385  0.172092549

  length of vectors
     5.810835571  5.810836970  5.810827087     0.210769218  0.210769256  0.210769286


 FORCES acting on ions
    electron-ion (+dipol)            ewald-force                    non-local-force                 convergence-correction
 -----------------------------------------------------------------------------------------------
   0.278E-01 0.198E-01 0.483E-01   -.375E-03 -.168E-02 -.273E-02   -.229E-02 -.162E-02 -.396E-02   -.223E-01 -.158E-01 -.387E-01
   0.279E-01 0.196E-01 -.483E-01   -.176E-02 0.174E-03 0.310E-02   -.229E-02 -.162E-02 0.396E-02   -.223E-01 -.158E-01 0.387E-01
   0.553E-04 -.591E-01 -.120E-03   -.499E-03 0.311E-02 0.110E-02   0.529E-08 0.485E-02 0.210E-08   -.783E-06 0.474E-01 -.202E-06
   -.557E-01 0.198E-01 0.133E-03   0.276E-02 -.151E-02 -.122E-02   0.457E-02 -.162E-02 -.715E-09   0.447E-01 -.158E-01 0.431E-06
   -.192E-03 -.770E-04 0.151E-03   0.133E-02 0.853E-03 -.784E-03   0.821E-18 -.618E-18 -.211E-17   -.132E-05 -.103E-05 0.842E-06
   0.472E-04 -.249E-04 -.116E-03   -.933E-05 0.791E-04 0.465E-03   0.313E-17 -.266E-17 -.101E-16   0.198E-05 0.120E-05 0.224E-05
   0.461E+02 0.326E+02 0.798E+02   -.431E+02 -.305E+02 -.747E+02   -.280E+01 -.198E+01 -.485E+01   -.168E+00 -.119E+00 -.290E+00
   -.458E+02 -.324E+02 0.792E+02   0.431E+02 0.305E+02 -.747E+02   0.280E+01 0.198E+01 -.484E+01   -.160E+00 -.113E+00 0.277E+00
   0.645E-02 0.971E+02 -.352E-02   0.151E-03 -.915E+02 -.859E-03   -.647E-05 -.593E+01 -.257E-05   0.486E-05 0.339E+00 0.178E-05
   0.915E+02 -.323E+02 0.360E-02   -.863E+02 0.305E+02 0.138E-02   -.559E+01 0.198E+01 0.874E-06   0.320E+00 -.113E+00 0.257E-05
   -.226E-02 -.977E+02 -.110E-01   0.909E-03 0.915E+02 -.126E-02   0.648E-05 0.594E+01 0.258E-05   -.454E-06 0.356E+00 0.605E-06
   -.922E+02 0.326E+02 0.365E-02   0.863E+02 -.305E+02 0.626E-03   0.560E+01 -.198E+01 -.875E-06   0.335E+00 -.119E+00 -.373E-05
   -.458E+02 -.324E+02 -.792E+02   0.431E+02 0.305E+02 0.747E+02   0.280E+01 0.198E+01 0.484E+01   -.160E+00 -.113E+00 -.277E+00
   0.461E+02 0.326E+02 -.798E+02   -.431E+02 -.305E+02 0.747E+02   -.280E+01 -.198E+01 0.485E+01   -.168E+00 -.119E+00 0.290E+00
 -----------------------------------------------------------------------------------------------
   -.702E-02 -.497E-02 -.713E-02   0.497E-13 -.107E-13 0.142E-13   0.000E+00 -.155E-14 -.266E-14   -.156E-05 -.831E-06 0.620E-05
 
 
 POSITION                                       TOTAL-FORCE (eV/Angst)
 -----------------------------------------------------------------------------------
      3.35490      2.37228      5.81084         0.001774      0.001254      0.003072
      3.35490      2.37228      8.71623         0.001774      0.001254     -0.003072
      4.19362      4.74451      7.26354        -0.000000     -0.003763     -0.000000
      5.87104      2.37228      7.26353        -0.003547      0.001254      0.000000
      5.87106      4.15147     10.16895        -0.000000      0.000000      0.000000
      0.83872      0.59307      1.45271        -0.000000      0.000000      0.000000
      4.92865      3.48508      8.53664        -0.024031     -0.016992     -0.041623
      1.78114      1.25947      5.63122         0.014966      0.010583     -0.025922
      2.51616      3.33843      4.35812        -0.000000     -0.031748     -0.000000
      3.98622      1.25946      4.35812        -0.029932      0.010583      0.000000
      4.19361      1.40611      7.26354         0.000000      0.050977      0.000000
      2.72356      3.48508      7.26353         0.048062     -0.016992     -0.000000
      1.78115      1.25946      3.08502         0.014966      0.010583      0.025922
      4.92864      3.48509      5.99043        -0.024031     -0.016992      0.041623
 -----------------------------------------------------------------------------------
    total drift:                               -0.007023     -0.004966     -0.007124


--------------------------------------------------------------------------------------------------------



  FREE ENERGIE OF THE ION-ELECTRON SYSTEM (eV)
  ---------------------------------------------------
  free  energy   TOTEN  =       -99.35310879 eV

  energy  without entropy=      -99.35310879  energy(sigma->0) =      -99.35310879
 
 d Force = 0.1058044E-02[-0.139E-02, 0.350E-02]  d Energy = 0.9155472E-02-0.810E-02
 d Force =-0.3019688E+01[-0.306E+01,-0.298E+01]  d Ewald  =-0.1463753E+02 0.116E+02


--------------------------------------------------------------------------------------------------------


    POTLOK:  cpu time      0.3333: real time      0.3341


--------------------------------------------------------------------------------------------------------




--------------------------------------------------------------------------------------------------------


  
 reached required accuracy - stopping structural energy minimisation
     LOOP+:  cpu time      9.6306: real time      9.6762
 -----------------------------------------------------------------------------
|                                                                             |
|           W    W    AA    RRRRR   N    N  II  N    N   GGGG   !!!           |
|           W    W   A  A   R    R  NN   N  II  NN   N  G    G  !!!           |
|           W    W  A    A  R    R  N N  N  II  N N  N  G       !!!           |
|           W WW W  AAAAAA  RRRRR   N  N N  II  N  N N  G  GGG   !            |
|           WW  WW  A    A  R   R   N   NN  II  N   NN  G    G                |
|           W    W  A    A  R    R  N    N  II  N    N   GGGG   !!!           |
|                                                                             |
|     Tetrahedron method does not include variations of the Fermi             |
|     occupations, so forces and stress will be inaccurate. We suggest        |
|     using a different smearing scheme ISMEAR = 1 or 2 for metals in         |
|     relaxations.                                                            |
|                                                                             |
 -----------------------------------------------------------------------------

    4ORBIT:  cpu time      0.0000: real time      0.0000



 total charge

# of ion       s       p       d       tot
------------------------------------------
    1        0.309   0.381   0.000   0.689
    2        0.309   0.381   0.000   0.689
    3        0.309   0.381   0.000   0.689
    4        0.309   0.381   0.000   0.689
    5        0.256   6.299   5.933  12.488
    6        0.256   6.298   5.889  12.443
    7        1.549   3.581   0.000   5.130
    8        1.549   3.581   0.000   5.130
    9        1.549   3.581   0.000   5.130
   10        1.549   3.581   0.000   5.130
   11        1.549   3.581   0.000   5.130
   12        1.549   3.581   0.000   5.130
   13        1.549   3.581   0.000   5.130
   14        1.549   3.581   0.000   5.130
--------------------------------------------------
tot         14.139  42.768  11.822  68.729



 magnetization (x)

# of ion       s       p       d       tot
------------------------------------------
    1       -0.001   0.002   0.000   0.001
    2       -0.001   0.002   0.000   0.001
    3       -0.001   0.002   0.000   0.001
    4       -0.001   0.002   0.000   0.001
    5        0.022   0.027   3.741   3.790
    6        0.022   0.028   3.783   3.833
    7        0.002   0.040   0.000   0.042
    8        0.002   0.040   0.000   0.043
    9        0.002   0.040   0.000   0.043
   10        0.002   0.040   0.000   0.043
   11        0.002   0.040   0.000   0.042
   12        0.002   0.040   0.000   0.042
   13        0.002   0.040   0.000   0.043
   14        0.002   0.040   0.000   0.042
--------------------------------------------------
tot          0.058   0.383   7.524   7.965
 
 BZINTS: Fermi energy:    8.060582;   88.000000 electrons
         Band energy:-0.667883E+03;  BLOECHL correction:   -0.009157

 total amount of memory used by VASP MPI-rank0    60100. kBytes
=======================================================================

   base      :      30000. kBytes
   nonlr-proj:       9507. kBytes
   fftplans  :       2356. kBytes
   grid      :      13870. kBytes
   one-center:        435. kBytes
   wavefun   :       3932. kBytes
 
  
  
 General timing and accounting informations for this job:
 ========================================================
  
                  Total CPU time used (sec):       90.467
                            User time (sec):       88.703
                          System time (sec):        1.764
                         Elapsed time (sec):       92.604
  
                   Maximum memory used (kb):      304556.
                   Average memory used (kb):          N/A
  
                          Minor page faults:        36597
                          Major page faults:            1
                 Voluntary context switches:        13379
