<?xml version="1.0" encoding="ISO-8859-1"?>
<modeling>
 <generator>
  <i name="program" type="string">vasp </i>
  <i name="version" type="string">6.4.3  </i>
  <i name="subversion" type="string">19Mar24 (build Oct 16 2024 18:29:25) complex                          parallel </i>
  <i name="platform" type="string">LinuxIFC </i>
  <i name="date" type="string">2025 08 12 </i>
  <i name="time" type="string">18:33:35 </i>
 </generator>
 <incar>
  <i type="string" name="PREC">Accurate</i>
  <i type="string" name="ALGO">Fast</i>
  <i type="int" name="ISPIN">     2</i>
  <i type="int" name="NELM">   100</i>
  <i type="int" name="IBRION">     2</i>
  <i name="EDIFF">      0.00010000</i>
  <i type="int" name="NSW">    99</i>
  <i type="int" name="ISIF">     3</i>
  <i name="ENCUT">    520.00000000</i>
  <v name="MAGMOM">      5.00000000      5.00000000</v>
  <i type="string" name="LREAL">Auto</i>
  <i type="int" name="ISMEAR">     1</i>
  <i name="SIGMA">      0.20000000</i>
  <i type="int" name="LMAXMIX">     4</i>
  <i type="logical" name="LWAVE"> F  </i>
  <i type="int" name="LORBIT">    11</i>
  <i type="logical" name="LASPH"> T  </i>
 </incar>
 <primitive_cell>
  <structure name="primitive_cell" >
   <crystal>
    <varray name="basis" >
     <v>       0.00007100      -0.00012350      -2.48908000 </v>
     <v>      -2.34670300      -0.00012350       0.82976000 </v>
     <v>       1.17345900       2.03224250       0.82976100 </v>
    </varray>
    <i name="volume">     11.86975450 </i>
    <varray name="rec_basis" >
     <v>      -0.14207337       0.24607855      -0.40177113 </v>
     <v>      -0.42615133       0.24607857      -0.00002437 </v>
     <v>      -0.00003453       0.49209717      -0.00002442 </v>
    </varray>
   </crystal>
   <varray name="positions" >
    <v>       0.00000000       0.00000000       0.00000000 </v>
   </varray>
  </structure>
  <varray name="primitive_index" >
   <v type="int" >        1 </v>
  </varray>
 </primitive_cell>
 <kpoints>
  <generation param="Monkhorst-Pack">
   <v type="int" name="divisions">      12       12       12 </v>
   <v name="usershift">      0.00000000       0.00000000       0.00000000 </v>
   <v name="genvec1">      0.08333333       0.00000000       0.00000000 </v>
   <v name="genvec2">      0.00000000       0.08333333       0.00000000 </v>
   <v name="genvec3">     -0.00000000      -0.00000000       0.08333333 </v>
   <v name="shift">      0.50000000       0.50000000       0.50000000 </v>
  </generation>
  <varray name="kpointlist" >
   <v>       0.04166667       0.04166667       0.04166667 </v>
   <v>       0.12500000       0.04166667       0.04166667 </v>
   <v>       0.20833333       0.04166667       0.04166667 </v>
   <v>       0.29166667       0.04166667       0.04166667 </v>
   <v>       0.37500000       0.04166667       0.04166667 </v>
   <v>       0.45833333       0.04166667       0.04166667 </v>
   <v>      -0.45833333       0.04166667       0.04166667 </v>
   <v>      -0.37500000       0.04166667       0.04166667 </v>
   <v>      -0.29166667       0.04166667       0.04166667 </v>
   <v>      -0.20833333       0.04166667       0.04166667 </v>
   <v>      -0.12500000       0.04166667       0.04166667 </v>
   <v>      -0.04166667       0.04166667       0.04166667 </v>
   <v>       0.04166667       0.12500000       0.04166667 </v>
   <v>       0.12500000       0.12500000       0.04166667 </v>
   <v>       0.20833333       0.12500000       0.04166667 </v>
   <v>       0.29166667       0.12500000       0.04166667 </v>
   <v>       0.37500000       0.12500000       0.04166667 </v>
   <v>       0.45833333       0.12500000       0.04166667 </v>
   <v>      -0.45833333       0.12500000       0.04166667 </v>
   <v>      -0.37500000       0.12500000       0.04166667 </v>
   <v>      -0.29166667       0.12500000       0.04166667 </v>
   <v>      -0.20833333       0.12500000       0.04166667 </v>
   <v>      -0.12500000       0.12500000       0.04166667 </v>
   <v>       0.04166667       0.20833333       0.04166667 </v>
   <v>       0.12500000       0.20833333       0.04166667 </v>
   <v>       0.20833333       0.20833333       0.04166667 </v>
   <v>       0.29166667       0.20833333       0.04166667 </v>
   <v>       0.37500000       0.20833333       0.04166667 </v>
   <v>       0.45833333       0.20833333       0.04166667 </v>
   <v>      -0.45833333       0.20833333       0.04166667 </v>
   <v>      -0.37500000       0.20833333       0.04166667 </v>
   <v>      -0.29166667       0.20833333       0.04166667 </v>
   <v>      -0.20833333       0.20833333       0.04166667 </v>
   <v>       0.04166667       0.29166667       0.04166667 </v>
   <v>       0.12500000       0.29166667       0.04166667 </v>
   <v>       0.20833333       0.29166667       0.04166667 </v>
   <v>       0.29166667       0.29166667       0.04166667 </v>
   <v>       0.37500000       0.29166667       0.04166667 </v>
   <v>       0.45833333       0.29166667       0.04166667 </v>
   <v>      -0.45833333       0.29166667       0.04166667 </v>
   <v>      -0.37500000       0.29166667       0.04166667 </v>
   <v>      -0.29166667       0.29166667       0.04166667 </v>
   <v>       0.04166667       0.37500000       0.04166667 </v>
   <v>       0.12500000       0.37500000       0.04166667 </v>
   <v>       0.20833333       0.37500000       0.04166667 </v>
   <v>       0.29166667       0.37500000       0.04166667 </v>
   <v>       0.37500000       0.37500000       0.04166667 </v>
   <v>       0.45833333       0.37500000       0.04166667 </v>
   <v>      -0.45833333       0.37500000       0.04166667 </v>
   <v>      -0.37500000       0.37500000       0.04166667 </v>
   <v>       0.04166667       0.45833333       0.04166667 </v>
   <v>       0.12500000       0.45833333       0.04166667 </v>
   <v>       0.20833333       0.45833333       0.04166667 </v>
   <v>       0.29166667       0.45833333       0.04166667 </v>
   <v>       0.37500000       0.45833333       0.04166667 </v>
   <v>       0.45833333       0.45833333       0.04166667 </v>
   <v>      -0.45833333       0.45833333       0.04166667 </v>
   <v>       0.12500000      -0.45833333       0.04166667 </v>
   <v>       0.20833333      -0.45833333       0.04166667 </v>
   <v>       0.29166667      -0.45833333       0.04166667 </v>
   <v>       0.37500000      -0.45833333       0.04166667 </v>
   <v>       0.45833333      -0.45833333       0.04166667 </v>
   <v>       0.12500000      -0.37500000       0.04166667 </v>
   <v>       0.20833333      -0.37500000       0.04166667 </v>
   <v>       0.29166667      -0.37500000       0.04166667 </v>
   <v>       0.37500000      -0.37500000       0.04166667 </v>
   <v>       0.12500000      -0.29166667       0.04166667 </v>
   <v>       0.20833333      -0.29166667       0.04166667 </v>
   <v>       0.29166667      -0.29166667       0.04166667 </v>
   <v>       0.12500000      -0.20833333       0.04166667 </v>
   <v>       0.20833333      -0.20833333       0.04166667 </v>
   <v>       0.12500000      -0.12500000       0.04166667 </v>
   <v>       0.12500000       0.12500000       0.12500000 </v>
   <v>       0.20833333       0.12500000       0.12500000 </v>
   <v>       0.29166667       0.12500000       0.12500000 </v>
   <v>       0.37500000       0.12500000       0.12500000 </v>
   <v>       0.45833333       0.12500000       0.12500000 </v>
   <v>      -0.45833333       0.12500000       0.12500000 </v>
   <v>      -0.37500000       0.12500000       0.12500000 </v>
   <v>      -0.29166667       0.12500000       0.12500000 </v>
   <v>      -0.20833333       0.12500000       0.12500000 </v>
   <v>      -0.12500000       0.12500000       0.12500000 </v>
   <v>       0.12500000       0.20833333       0.12500000 </v>
   <v>       0.20833333       0.20833333       0.12500000 </v>
   <v>       0.29166667       0.20833333       0.12500000 </v>
   <v>       0.37500000       0.20833333       0.12500000 </v>
   <v>       0.45833333       0.20833333       0.12500000 </v>
   <v>      -0.45833333       0.20833333       0.12500000 </v>
   <v>      -0.37500000       0.20833333       0.12500000 </v>
   <v>      -0.29166667       0.20833333       0.12500000 </v>
   <v>      -0.20833333       0.20833333       0.12500000 </v>
   <v>       0.12500000       0.29166667       0.12500000 </v>
   <v>       0.20833333       0.29166667       0.12500000 </v>
   <v>       0.29166667       0.29166667       0.12500000 </v>
   <v>       0.37500000       0.29166667       0.12500000 </v>
   <v>       0.45833333       0.29166667       0.12500000 </v>
   <v>      -0.45833333       0.29166667       0.12500000 </v>
   <v>      -0.37500000       0.29166667       0.12500000 </v>
   <v>      -0.29166667       0.29166667       0.12500000 </v>
   <v>       0.12500000       0.37500000       0.12500000 </v>
   <v>       0.20833333       0.37500000       0.12500000 </v>
   <v>       0.29166667       0.37500000       0.12500000 </v>
   <v>       0.37500000       0.37500000       0.12500000 </v>
   <v>       0.45833333       0.37500000       0.12500000 </v>
   <v>      -0.45833333       0.37500000       0.12500000 </v>
   <v>      -0.37500000       0.37500000       0.12500000 </v>
   <v>       0.12500000       0.45833333       0.12500000 </v>
   <v>       0.20833333       0.45833333       0.12500000 </v>
   <v>       0.29166667       0.45833333       0.12500000 </v>
   <v>       0.37500000       0.45833333       0.12500000 </v>
   <v>       0.45833333       0.45833333       0.12500000 </v>
   <v>      -0.45833333       0.45833333       0.12500000 </v>
   <v>       0.20833333      -0.45833333       0.12500000 </v>
   <v>       0.29166667      -0.45833333       0.12500000 </v>
   <v>       0.37500000      -0.45833333       0.12500000 </v>
   <v>       0.45833333      -0.45833333       0.12500000 </v>
   <v>       0.20833333      -0.37500000       0.12500000 </v>
   <v>       0.29166667      -0.37500000       0.12500000 </v>
   <v>       0.37500000      -0.37500000       0.12500000 </v>
   <v>       0.20833333      -0.29166667       0.12500000 </v>
   <v>       0.29166667      -0.29166667       0.12500000 </v>
   <v>       0.20833333      -0.20833333       0.12500000 </v>
   <v>       0.20833333       0.20833333       0.20833333 </v>
   <v>       0.29166667       0.20833333       0.20833333 </v>
   <v>       0.37500000       0.20833333       0.20833333 </v>
   <v>       0.45833333       0.20833333       0.20833333 </v>
   <v>      -0.45833333       0.20833333       0.20833333 </v>
   <v>      -0.37500000       0.20833333       0.20833333 </v>
   <v>      -0.29166667       0.20833333       0.20833333 </v>
   <v>      -0.20833333       0.20833333       0.20833333 </v>
   <v>       0.20833333       0.29166667       0.20833333 </v>
   <v>       0.29166667       0.29166667       0.20833333 </v>
   <v>       0.37500000       0.29166667       0.20833333 </v>
   <v>       0.45833333       0.29166667       0.20833333 </v>
   <v>      -0.45833333       0.29166667       0.20833333 </v>
   <v>      -0.37500000       0.29166667       0.20833333 </v>
   <v>      -0.29166667       0.29166667       0.20833333 </v>
   <v>       0.20833333       0.37500000       0.20833333 </v>
   <v>       0.29166667       0.37500000       0.20833333 </v>
   <v>       0.37500000       0.37500000       0.20833333 </v>
   <v>       0.45833333       0.37500000       0.20833333 </v>
   <v>      -0.45833333       0.37500000       0.20833333 </v>
   <v>      -0.37500000       0.37500000       0.20833333 </v>
   <v>       0.20833333       0.45833333       0.20833333 </v>
   <v>       0.29166667       0.45833333       0.20833333 </v>
   <v>       0.37500000       0.45833333       0.20833333 </v>
   <v>       0.45833333       0.45833333       0.20833333 </v>
   <v>      -0.45833333       0.45833333       0.20833333 </v>
   <v>       0.29166667      -0.45833333       0.20833333 </v>
   <v>       0.37500000      -0.45833333       0.20833333 </v>
   <v>       0.45833333      -0.45833333       0.20833333 </v>
   <v>       0.29166667      -0.37500000       0.20833333 </v>
   <v>       0.37500000      -0.37500000       0.20833333 </v>
   <v>       0.29166667      -0.29166667       0.20833333 </v>
   <v>       0.29166667       0.29166667       0.29166667 </v>
   <v>       0.37500000       0.29166667       0.29166667 </v>
   <v>       0.45833333       0.29166667       0.29166667 </v>
   <v>      -0.45833333       0.29166667       0.29166667 </v>
   <v>      -0.37500000       0.29166667       0.29166667 </v>
   <v>      -0.29166667       0.29166667       0.29166667 </v>
   <v>       0.29166667       0.37500000       0.29166667 </v>
   <v>       0.37500000       0.37500000       0.29166667 </v>
   <v>       0.45833333       0.37500000       0.29166667 </v>
   <v>      -0.45833333       0.37500000       0.29166667 </v>
   <v>      -0.37500000       0.37500000       0.29166667 </v>
   <v>       0.29166667       0.45833333       0.29166667 </v>
   <v>       0.37500000       0.45833333       0.29166667 </v>
   <v>       0.45833333       0.45833333       0.29166667 </v>
   <v>      -0.45833333       0.45833333       0.29166667 </v>
   <v>       0.37500000      -0.45833333       0.29166667 </v>
   <v>       0.45833333      -0.45833333       0.29166667 </v>
   <v>       0.37500000      -0.37500000       0.29166667 </v>
   <v>       0.37500000       0.37500000       0.37500000 </v>
   <v>       0.45833333       0.37500000       0.37500000 </v>
   <v>      -0.45833333       0.37500000       0.37500000 </v>
   <v>      -0.37500000       0.37500000       0.37500000 </v>
   <v>       0.37500000       0.45833333       0.37500000 </v>
   <v>       0.45833333       0.45833333       0.37500000 </v>
   <v>      -0.45833333       0.45833333       0.37500000 </v>
   <v>       0.45833333      -0.45833333       0.37500000 </v>
   <v>       0.45833333       0.45833333       0.45833333 </v>
   <v>      -0.45833333       0.45833333       0.45833333 </v>
  </varray>
  <varray name="weights" >
   <v>       0.00347222 </v>
   <v>       0.00347222 </v>
   <v>       0.00347222 </v>
   <v>       0.00347222 </v>
   <v>       0.00347222 </v>
   <v>       0.00347222 </v>
   <v>       0.00347222 </v>
   <v>       0.00347222 </v>
   <v>       0.00347222 </v>
   <v>       0.00347222 </v>
   <v>       0.00347222 </v>
   <v>       0.00115741 </v>
   <v>       0.00694444 </v>
   <v>       0.00694444 </v>
   <v>       0.00694444 </v>
   <v>       0.00694444 </v>
   <v>       0.00694444 </v>
   <v>       0.00694444 </v>
   <v>       0.00694444 </v>
   <v>       0.00694444 </v>
   <v>       0.00694444 </v>
   <v>       0.00694444 </v>
   <v>       0.00347222 </v>
   <v>       0.00694444 </v>
   <v>       0.00694444 </v>
   <v>       0.00694444 </v>
   <v>       0.00694444 </v>
   <v>       0.00694444 </v>
   <v>       0.00694444 </v>
   <v>       0.00694444 </v>
   <v>       0.00694444 </v>
   <v>       0.00694444 </v>
   <v>       0.00347222 </v>
   <v>       0.00694444 </v>
   <v>       0.00694444 </v>
   <v>       0.00694444 </v>
   <v>       0.00694444 </v>
   <v>       0.00694444 </v>
   <v>       0.00694444 </v>
   <v>       0.00694444 </v>
   <v>       0.00694444 </v>
   <v>       0.00347222 </v>
   <v>       0.00694444 </v>
   <v>       0.00694444 </v>
   <v>       0.00694444 </v>
   <v>       0.00694444 </v>
   <v>       0.00694444 </v>
   <v>       0.00694444 </v>
   <v>       0.00694444 </v>
   <v>       0.00347222 </v>
   <v>       0.00694444 </v>
   <v>       0.00694444 </v>
   <v>       0.00694444 </v>
   <v>       0.00694444 </v>
   <v>       0.00694444 </v>
   <v>       0.00694444 </v>
   <v>       0.00347222 </v>
   <v>       0.00694444 </v>
   <v>       0.00694444 </v>
   <v>       0.00694444 </v>
   <v>       0.00694444 </v>
   <v>       0.00347222 </v>
   <v>       0.00694444 </v>
   <v>       0.00694444 </v>
   <v>       0.00694444 </v>
   <v>       0.00347222 </v>
   <v>       0.00694444 </v>
   <v>       0.00694444 </v>
   <v>       0.00347222 </v>
   <v>       0.00694444 </v>
   <v>       0.00347222 </v>
   <v>       0.00347222 </v>
   <v>       0.00347222 </v>
   <v>       0.00347222 </v>
   <v>       0.00347222 </v>
   <v>       0.00347222 </v>
   <v>       0.00347222 </v>
   <v>       0.00347222 </v>
   <v>       0.00347222 </v>
   <v>       0.00347222 </v>
   <v>       0.00347222 </v>
   <v>       0.00115741 </v>
   <v>       0.00694444 </v>
   <v>       0.00694444 </v>
   <v>       0.00694444 </v>
   <v>       0.00694444 </v>
   <v>       0.00694444 </v>
   <v>       0.00694444 </v>
   <v>       0.00694444 </v>
   <v>       0.00694444 </v>
   <v>       0.00347222 </v>
   <v>       0.00694444 </v>
   <v>       0.00694444 </v>
   <v>       0.00694444 </v>
   <v>       0.00694444 </v>
   <v>       0.00694444 </v>
   <v>       0.00694444 </v>
   <v>       0.00694444 </v>
   <v>       0.00347222 </v>
   <v>       0.00694444 </v>
   <v>       0.00694444 </v>
   <v>       0.00694444 </v>
   <v>       0.00694444 </v>
   <v>       0.00694444 </v>
   <v>       0.00694444 </v>
   <v>       0.00347222 </v>
   <v>       0.00694444 </v>
   <v>       0.00694444 </v>
   <v>       0.00694444 </v>
   <v>       0.00694444 </v>
   <v>       0.00694444 </v>
   <v>       0.00347222 </v>
   <v>       0.00694444 </v>
   <v>       0.00694444 </v>
   <v>       0.00694444 </v>
   <v>       0.00347222 </v>
   <v>       0.00694444 </v>
   <v>       0.00694444 </v>
   <v>       0.00347222 </v>
   <v>       0.00694444 </v>
   <v>       0.00347222 </v>
   <v>       0.00347222 </v>
   <v>       0.00347222 </v>
   <v>       0.00347222 </v>
   <v>       0.00347222 </v>
   <v>       0.00347222 </v>
   <v>       0.00347222 </v>
   <v>       0.00347222 </v>
   <v>       0.00347222 </v>
   <v>       0.00115741 </v>
   <v>       0.00694444 </v>
   <v>       0.00694444 </v>
   <v>       0.00694444 </v>
   <v>       0.00694444 </v>
   <v>       0.00694444 </v>
   <v>       0.00694444 </v>
   <v>       0.00347222 </v>
   <v>       0.00694444 </v>
   <v>       0.00694444 </v>
   <v>       0.00694444 </v>
   <v>       0.00694444 </v>
   <v>       0.00694444 </v>
   <v>       0.00347222 </v>
   <v>       0.00694444 </v>
   <v>       0.00694444 </v>
   <v>       0.00694444 </v>
   <v>       0.00694444 </v>
   <v>       0.00347222 </v>
   <v>       0.00694444 </v>
   <v>       0.00694444 </v>
   <v>       0.00347222 </v>
   <v>       0.00694444 </v>
   <v>       0.00347222 </v>
   <v>       0.00347222 </v>
   <v>       0.00347222 </v>
   <v>       0.00347222 </v>
   <v>       0.00347222 </v>
   <v>       0.00347222 </v>
   <v>       0.00347222 </v>
   <v>       0.00115741 </v>
   <v>       0.00694444 </v>
   <v>       0.00694444 </v>
   <v>       0.00694444 </v>
   <v>       0.00694444 </v>
   <v>       0.00347222 </v>
   <v>       0.00694444 </v>
   <v>       0.00694444 </v>
   <v>       0.00694444 </v>
   <v>       0.00347222 </v>
   <v>       0.00694444 </v>
   <v>       0.00347222 </v>
   <v>       0.00347222 </v>
   <v>       0.00347222 </v>
   <v>       0.00347222 </v>
   <v>       0.00347222 </v>
   <v>       0.00115741 </v>
   <v>       0.00694444 </v>
   <v>       0.00694444 </v>
   <v>       0.00347222 </v>
   <v>       0.00347222 </v>
   <v>       0.00347222 </v>
   <v>       0.00115741 </v>
  </varray>
 </kpoints>
 <parameters>
  <separator name="general" >
   <i type="string" name="SYSTEM">unknown system</i>
   <i type="logical" name="LCOMPAT"> F  </i>
  </separator>
  <separator name="electronic" >
   <i type="string" name="PREC">accura</i>
   <i name="ENMAX">    520.00000000</i>
   <i name="ENAUG">    519.42400000</i>
   <i name="EDIFF">      0.00010000</i>
   <i type="int" name="IALGO">    68</i>
   <i type="int" name="IWAVPR">    11</i>
   <i type="int" name="NBANDS">    32</i>
   <i type="int" name="NBANDSLOW">    -1</i>
   <i type="int" name="NBANDSHIGH">    -1</i>
   <i name="NELECT">     24.00000000</i>
   <i type="int" name="TURBO">     0</i>
   <i type="int" name="IRESTART">     0</i>
   <i type="int" name="NREBOOT">     0</i>
   <i type="int" name="NMIN">     0</i>
   <i name="EREF">      0.00000000</i>
   <separator name="electronic smearing" >
    <i type="int" name="ISMEAR">     1</i>
    <i name="SIGMA">      0.20000000</i>
    <i name="KSPACING">      0.50000000</i>
    <i type="logical" name="KGAMMA"> T  </i>
    <i type="logical" name="KBLOWUP"> T  </i>
   </separator>
   <separator name="electronic projectors" >
    <i type="logical" name="LREAL"> T  </i>
    <v name="ROPT">     -0.00025000</v>
    <i type="int" name="LMAXPAW">  -100</i>
    <i type="int" name="LMAXMIX">     4</i>
    <i type="logical" name="NLSPLINE"> F  </i>
   </separator>
   <separator name="electronic startup" >
    <i type="int" name="ISTART">     0</i>
    <i type="int" name="ICHARG">     2</i>
    <i type="int" name="INIWAV">     1</i>
   </separator>
   <separator name="electronic spin" >
    <i type="int" name="ISPIN">     2</i>
    <i type="logical" name="LNONCOLLINEAR"> F  </i>
    <v name="MAGMOM">      5.00000000      5.00000000</v>
    <i name="NUPDOWN">     -1.00000000</i>
    <i type="logical" name="LSORBIT"> F  </i>
    <v name="SAXIS">      0.00000000      0.00000000      1.00000000</v>
    <i type="logical" name="LSPIRAL"> F  </i>
    <v name="QSPIRAL">      0.00000000      0.00000000      0.00000000</v>
    <i type="logical" name="LZEROZ"> F  </i>
   </separator>
   <separator name="electronic exchange-correlation" >
    <i type="logical" name="LASPH"> T  </i>
   </separator>
   <separator name="electronic convergence" >
    <i type="int" name="NELM">   100</i>
    <i type="int" name="NELMDL">    -5</i>
    <i type="int" name="NELMIN">     2</i>
    <i name="ENINI">    520.00000000</i>
    <separator name="electronic convergence detail" >
     <i type="logical" name="LDIAG"> T  </i>
     <i type="logical" name="LSUBROT"> F  </i>
     <i name="WEIMIN">      0.00100000</i>
     <i name="EBREAK">      0.00000078</i>
     <i name="DEPER">      0.30000000</i>
     <i type="int" name="NRMM">     4</i>
     <i name="TIME">      0.40000000</i>
    </separator>
   </separator>
   <separator name="electronic mixer" >
    <i name="AMIX">      0.40000000</i>
    <i name="BMIX">      1.00000000</i>
    <i name="AMIN">      0.10000000</i>
    <i name="AMIX_MAG">      1.60000000</i>
    <i name="BMIX_MAG">      1.00000000</i>
    <separator name="electronic mixer details" >
     <i type="int" name="IMIX">     4</i>
     <i type="logical" name="MIXFIRST"> F  </i>
     <i type="int" name="MAXMIX">   -45</i>
     <i name="WC">    100.00000000</i>
     <i type="int" name="INIMIX">     1</i>
     <i type="int" name="MIXPRE">     1</i>
     <i type="int" name="MREMOVE">     5</i>
    </separator>
   </separator>
   <separator name="electronic dipolcorrection" >
    <i type="logical" name="LDIPOL"> F  </i>
    <i type="logical" name="LMONO"> F  </i>
    <i type="int" name="IDIPOL">     0</i>
    <i name="EPSILON">      1.00000000</i>
    <v name="DIPOL">   -100.00000000   -100.00000000   -100.00000000</v>
    <i name="EFIELD">      0.00000000</i>
    <i type="logical" name="LVACPOTAV"> F  </i>
   </separator>
  </separator>
  <separator name="grids" >
   <i type="int" name="NGX">    24</i>
   <i type="int" name="NGY">    24</i>
   <i type="int" name="NGZ">    24</i>
   <i type="int" name="NGXF">    48</i>
   <i type="int" name="NGYF">    48</i>
   <i type="int" name="NGZF">    48</i>
   <i type="logical" name="ADDGRID"> F  </i>
  </separator>
  <separator name="ionic" >
   <i type="int" name="NSW">    99</i>
   <i type="int" name="IBRION">     2</i>
   <i type="int" name="MDALGO">     0</i>
   <i type="int" name="ISIF">     3</i>
   <i name="PSTRESS">      0.00000000</i>
   <i name="EDIFFG">      0.00100000</i>
   <i type="int" name="NFREE">     1</i>
   <i name="POTIM">      0.50000000</i>
   <i name="SMASS">     -3.00000000</i>
   <i name="SCALEE">      1.00000000</i>
  </separator>
  <separator name="ionic md" >
   <i name="TEBEG">      0.00010000</i>
   <i name="TEEND">      0.00010000</i>
   <i type="int" name="NBLOCK">     1</i>
   <i type="int" name="KBLOCK">    99</i>
   <i type="int" name="NPACO">   256</i>
   <i name="APACO">     10.00000000</i>
  </separator>
  <separator name="symmetry" >
   <i type="int" name="ISYM">     2</i>
   <i name="SYMPREC">      0.00001000</i>
  </separator>
  <separator name="dos" >
   <i type="int" name="LORBIT">    11</i>
   <v name="RWIGS">     -1.00000000</v>
   <i type="int" name="NEDOS">   301</i>
   <i name="EMIN">     10.00000000</i>
   <i name="EMAX">    -10.00000000</i>
   <i name="EFERMI">      0.00000000</i>
  </separator>
  <separator name="writing" >
   <i type="int" name="NWRITE">     2</i>
   <i type="logical" name="LWAVE"> F  </i>
   <i type="logical" name="LDOWNSAMPLE"> F  </i>
   <i type="logical" name="LCHARG"> T  </i>
   <i type="logical" name="LPARD"> F  </i>
   <i type="logical" name="LVTOT"> F  </i>
   <i type="logical" name="LVHAR"> F  </i>
   <i type="logical" name="LELF"> F  </i>
   <i type="logical" name="LOPTICS"> F  </i>
   <v name="STM">      0.00000000      0.00000000      0.00000000      0.00000000      0.00000000      0.00000000      0.00000000</v>
  </separator>
  <separator name="performance" >
   <i type="int" name="NPAR">    32</i>
   <i type="int" name="NSIM">     4</i>
   <i type="int" name="NBLK">    -1</i>
   <i type="logical" name="LPLANE"> T  </i>
   <i type="logical" name="LSCALAPACK"> T  </i>
   <i type="logical" name="LSCAAWARE"> T  </i>
   <i type="logical" name="LSCALU"> F  </i>
   <i type="logical" name="LASYNC"> F  </i>
   <i type="logical" name="LORBITALREAL"> F  </i>
  </separator>
  <separator name="miscellaneous" >
   <i type="int" name="IDIOT">     3</i>
   <i type="int" name="PHON_NSTRUCT">    -1</i>
   <i type="logical" name="LMUSIC"> F  </i>
   <v name="POMASS">     51.99600000</v>
   <v name="DARWINR">      0.00000000</v>
   <v name="DARWINV">      1.00000000</v>
   <i type="logical" name="LCORR"> T  </i>
  </separator>
  <i type="logical" name="GGA_COMPAT"> T  </i>
  <i type="logical" name="LBERRY"> F  </i>
  <i type="int" name="ICORELEVEL">     0</i>
  <i type="logical" name="LDAU"> F  </i>
  <i type="int" name="I_CONSTRAINED_M">     0</i>
  <separator name="electronic exchange-correlation" >
   <i type="string" name="GGA    ">PE</i>
   <i type="string" name="XC_C">1</i>
   <i type="int" name="VOSKOWN">     0</i>
   <i type="logical" name="LHFCALC"> F  </i>
   <i type="string" name="PRECFOCK"></i>
   <i type="logical" name="LSYMGRAD"> F  </i>
   <i type="logical" name="LHFONE"> F  </i>
   <i type="logical" name="LRHFCALC"> F  </i>
   <i type="logical" name="LTHOMAS"> F  </i>
   <i type="logical" name="LMODELHF"> F  </i>
   <i type="logical" name="LFOCKACE"> F  </i>
   <i name="ENCUT4O">     -1.00000000</i>
   <i type="int" name="EXXOEP">     0</i>
   <i type="int" name="FOURORBIT">     0</i>
   <i name="AEXX">      0.00000000</i>
   <i name="HFALPHA">      0.00000000</i>
   <i name="MCALPHA">      0.00000000</i>
   <i name="ALDAX">      1.00000000</i>
   <i name="AGGAX">      1.00000000</i>
   <i name="AMGGAX">      1.00000000</i>
   <i name="ALDAC">      1.00000000</i>
   <i name="AGGAC">      1.00000000</i>
   <i name="AMGGAC">      1.00000000</i>
   <i type="int" name="NKREDX">     1</i>
   <i type="int" name="NKREDY">     1</i>
   <i type="int" name="NKREDZ">     1</i>
   <i type="logical" name="SHIFTRED"> F  </i>
   <i type="logical" name="ODDONLY"> F  </i>
   <i type="logical" name="EVENONLY"> F  </i>
   <i type="int" name="LMAXFOCK">     0</i>
   <i type="int" name="NMAXFOCKAE">     0</i>
   <i type="logical" name="LFOCKAEDFT"> F  </i>
   <i name="HFSCREEN">      0.00000000</i>
   <i name="HFSCREENC">      0.00000000</i>
   <i type="int" name="NBANDSGWLOW">     0</i>
  </separator>
  <separator name="vdW DFT" >
   <i type="logical" name="LUSE_VDW"> F  </i>
   <i type="int" name="IVDW_NL">    -1</i>
   <i type="logical" name="LSPIN_VDW"> F  </i>
   <i name="ZAB_VDW">     -0.84910000</i>
   <i name="GAMMA_VDW">      1.39626340</i>
   <i name="ALPHA_VDW">      0.00000000</i>
   <i name="PARAM1">      0.12340000</i>
   <i name="PARAM2">      1.00000000</i>
   <i name="BPARAM">      6.30000000</i>
   <i name="CPARAM">      0.00930000</i>
  </separator>
  <separator name="model GW" >
   <i type="int" name="MODEL_GW">     0</i>
   <i name="MODEL_EPS0">      7.12185270</i>
   <i name="MODEL_ALPHA">      1.00000000</i>
  </separator>
  <separator name="linear response parameters" >
   <i type="logical" name="LEPSILON"> F  </i>
   <i type="logical" name="LRPA"> F  </i>
   <i type="logical" name="LNABLA"> F  </i>
   <i type="logical" name="LVEL"> F  </i>
   <i name="CSHIFT">      0.10000000</i>
   <i name="OMEGAMAX">     -1.00000000</i>
   <i name="DEG_THRESHOLD">      0.00200000</i>
   <i name="RTIME">     -0.10000000</i>
   <i name="WPLASMAI">      0.00000000</i>
   <v name="DFIELD">      0.00000000      0.00000000      0.00000000</v>
   <v name="WPLASMA">      0.00000000      0.00000000      0.00000000      0.00000000      0.00000000      0.00000000      0.00000000      0.00000000      0.00000000</v>
  </separator>
  <separator name="orbital magnetization" >
   <i type="logical" name="NUCIND"> F  </i>
   <v name="MAGPOS">      0.00000000      0.00000000      0.00000000</v>
   <i type="logical" name="LNICSALL"> T  </i>
   <i type="logical" name="ORBITALMAG"> F  </i>
   <i type="logical" name="LMAGBLOCH"> F  </i>
   <i type="logical" name="LCHIMAG"> F  </i>
   <i type="logical" name="LGAUGE"> T  </i>
   <i type="int" name="MAGATOM">     0</i>
   <v name="MAGDIPOL">      0.00000000      0.00000000      0.00000000</v>
   <v name="AVECCONST">      0.00000000      0.00000000      0.00000000</v>
  </separator>
  <separator name="response functions" >
   <i type="logical" name="LALL_IN_ONE"> F  </i>
   <i type="int" name="IALL_IN_ONE">    -1</i>
   <i type="int" name="NBANDS_WAVE">    -1</i>
   <i type="logical" name="LFINITE_TEMPERATURE"> F  </i>
   <i type="logical" name="LADDER"> F  </i>
   <i type="logical" name="LRPAFORCE"> F  </i>
   <i type="logical" name="LFXC"> F  </i>
   <i type="logical" name="LHARTREE"> T  </i>
   <i type="int" name="IBSE">     0</i>
   <v type="int" name="KPOINT">    -1     0     0     0</v>
   <i type="logical" name="LTCTC"> F  </i>
   <i type="logical" name="LTCTE"> F  </i>
   <i type="logical" name="LTETE"> F  </i>
   <i type="logical" name="LTRIPLET"> F  </i>
   <i type="logical" name="LFXCEPS"> F  </i>
   <i type="logical" name="LFXHEG"> F  </i>
   <i type="int" name="NATURALO">     2</i>
   <i type="logical" name="LHOLEGF"> F  </i>
   <i type="logical" name="L2ORDER"> F  </i>
   <i type="logical" name="LDMP1"> F  </i>
   <i type="logical" name="LMP2LT"> F  </i>
   <i type="logical" name="LSMP2LT"> F  </i>
   <i type="logical" name="LGWLF"> F  </i>
   <i name="ENCUTGW">     -1.60000002</i>
   <i name="ENCUTGWSOFT">     -1.60000002</i>
   <i name="ENCUTLF">     -1.00000000</i>
   <i type="logical" name="ESF_SPLINES"> F  </i>
   <i name="ESF_CONV">      0.01000000</i>
   <i type="int" name="ESF_NINTER">    15</i>
   <i type="int" name="LMAXMP2">    -1</i>
   <i name="SCISSOR">      0.00000000</i>
   <i type="int" name="NOMEGA">     0</i>
   <i type="int" name="NOMEGAR">     0</i>
   <i type="int" name="NBANDSGW">    -1</i>
   <i type="int" name="NBANDSO">    -1</i>
   <i type="int" name="NBANDSV">    -1</i>
   <i type="int" name="NELMGW">     1</i>
   <i type="int" name="NELMHF">     1</i>
   <i type="int" name="DIM">     3</i>
   <i type="int" name="IESPILON">     4</i>
   <i type="int" name="ANTIRES">     0</i>
   <i name="OMEGAMAX">    -30.00000000</i>
   <i name="OMEGAMIN">    -30.00000000</i>
   <i name="OMEGATL">   -200.00000000</i>
   <i type="int" name="OMEGAGRID">     0</i>
   <i name="CSHIFT">     -0.10000000</i>
   <i type="logical" name="LSELFENERGY"> F  </i>
   <i type="logical" name="LSPECTRAL"> F  </i>
   <i type="logical" name="LSPECTRALGW"> F  </i>
   <i type="logical" name="LSINGLES"> F  </i>
   <i type="logical" name="LFERMIGW"> F  </i>
   <i type="logical" name="ODDONLYGW"> F  </i>
   <i type="logical" name="EVENONLYGW"> F  </i>
   <i type="int" name="NKREDLFX">     1</i>
   <i type="int" name="NKREDLFY">     1</i>
   <i type="int" name="NKREDLFZ">     1</i>
   <i type="int" name="MAXMEM">  2800</i>
   <i type="int" name="TELESCOPE">     0</i>
   <i type="int" name="NTAUPAR">    -1</i>
   <i type="int" name="NOMEGAPAR">    -1</i>
   <i name="DAMP_NEWTON">      0.80000001</i>
   <i name="LAMBDA">      1.00000000</i>
  </separator>
  <separator name="External order field" >
   <i name="OFIELD_KAPPA">      0.00000000</i>
   <v name="OFIELD_K">      0.00000000      0.00000000      0.00000000</v>
   <i name="OFIELD_Q6_NEAR">      0.00000000</i>
   <i name="OFIELD_Q6_FAR">      0.00000000</i>
   <i name="OFIELD_A">      0.00000000</i>
  </separator>
  <separator name="optional k-points parameters" >
   <i type="int" name="KPOINTS_OPT_MODE">     1</i>
   <i type="logical" name="LKPOINTS_OPT"> F  </i>
  </separator>
 </parameters>
 <atominfo>
  <atoms>       2 </atoms>
  <types>       1 </types>
  <array name="atoms" >
   <dimension dim="1">ion</dimension>
   <field type="string">element</field>
   <field type="int">atomtype</field>
   <set>
    <rc><c>Cr</c><c>   1</c></rc>
    <rc><c>Cr</c><c>   1</c></rc>
   </set>
  </array>
  <array name="atomtypes" >
   <dimension dim="1">type</dimension>
   <field type="int">atomspertype</field>
   <field type="string">element</field>
   <field>mass</field>
   <field>valence</field>
   <field type="string">pseudopotential</field>
   <set>
    <rc><c>   2</c><c>Cr</c><c>     51.99600000</c><c>     12.00000000</c><c> PAW_PBE Cr_pv 07Sep2000                </c></rc>
   </set>
  </array>
 </atominfo>
 <structure name="initialpos" >
  <crystal>
   <varray name="basis" >
    <v>      -1.17324400       2.03211900       1.65952100 </v>
    <v>      -1.17353000      -2.03211900       1.65931900 </v>
    <v>       2.34663200       0.00024700       1.65932000 </v>
   </varray>
   <i name="volume">     23.73950901 </i>
   <varray name="rec_basis" >
    <v>      -0.14205625       0.24604860       0.20086117 </v>
    <v>      -0.14202172      -0.24604857       0.20088559 </v>
    <v>       0.28409508      -0.00002998       0.20088554 </v>
   </varray>
  </crystal>
  <varray name="positions" >
   <v>       0.50000000       0.50000000       0.50000000 </v>
   <v>       0.00000000       0.00000000       0.00000000 </v>
  </varray>
 </structure>
 <calculation>
  <scstep>
   <time name="dav">    3.71    3.75</time>
   <time name="total">    4.15    4.19</time>
   <energy>
    <i name="alphaZ">    266.40160748 </i>
    <i name="ewald">  -2625.65646788 </i>
    <i name="hartreedc">   -647.73174927 </i>
    <i name="XCdc">    116.29823011 </i>
    <i name="pawpsdc">   2347.54900735 </i>
    <i name="pawaedc">  -2443.60912299 </i>
    <i name="eentropy">     -0.00248921 </i>
    <i name="bandstr">   -275.18255594 </i>
    <i name="atom">   3295.12203283 </i>
    <i name="e_fr_energy">     33.18849249 </i>
    <i name="e_wo_entrp">     33.19098170 </i>
    <i name="e_0_energy">     33.18932222 </i>
   </energy>
  </scstep>
  <scstep>
   <time name="dav">    4.40    4.43</time>
   <time name="total">    4.40    4.43</time>
   <energy>
    <i name="e_fr_energy">    -14.88098981 </i>
    <i name="e_wo_entrp">    -14.88195343 </i>
    <i name="e_0_energy">    -14.88131102 </i>
   </energy>
  </scstep>
  <scstep>
   <time name="dav">    5.45    5.49</time>
   <time name="total">    5.45    5.49</time>
   <energy>
    <i name="e_fr_energy">    -14.97869909 </i>
    <i name="e_wo_entrp">    -14.97965906 </i>
    <i name="e_0_energy">    -14.97901908 </i>
   </energy>
  </scstep>
  <scstep>
   <time name="dav">    6.42    6.46</time>
   <time name="total">    6.42    6.46</time>
   <energy>
    <i name="e_fr_energy">    -14.97885098 </i>
    <i name="e_wo_entrp">    -14.97981067 </i>
    <i name="e_0_energy">    -14.97917087 </i>
   </energy>
  </scstep>
  <scstep>
   <time name="dav">    5.48    5.52</time>
   <time name="total">    5.56    5.60</time>
   <energy>
    <i name="e_fr_energy">    -14.97885098 </i>
    <i name="e_wo_entrp">    -14.97981067 </i>
    <i name="e_0_energy">    -14.97917088 </i>
   </energy>
  </scstep>
  <scstep>
   <time name="diag">    0.54    0.54</time>
   <time name="diis">    1.86    1.87</time>
   <time name="orth">    0.05    0.05</time>
   <time name="total">    2.83    2.85</time>
   <energy>
    <i name="e_fr_energy">    -18.74840558 </i>
    <i name="e_wo_entrp">    -18.74981328 </i>
    <i name="e_0_energy">    -18.74887481 </i>
   </energy>
  </scstep>
  <scstep>
   <time name="diag">    0.53    0.54</time>
   <time name="diis">    1.62    1.63</time>
   <time name="orth">    0.05    0.05</time>
   <time name="total">    2.60    2.62</time>
   <energy>
    <i name="e_fr_energy">    -19.06066923 </i>
    <i name="e_wo_entrp">    -19.06209296 </i>
    <i name="e_0_energy">    -19.06114380 </i>
   </energy>
  </scstep>
  <scstep>
   <time name="diag">    0.53    0.53</time>
   <time name="diis">    1.57    1.58</time>
   <time name="orth">    0.05    0.05</time>
   <time name="total">    2.52    2.54</time>
   <energy>
    <i name="e_fr_energy">    -19.24375902 </i>
    <i name="e_wo_entrp">    -19.23932967 </i>
    <i name="e_0_energy">    -19.24228257 </i>
   </energy>
  </scstep>
  <scstep>
   <time name="diag">    0.53    0.53</time>
   <time name="diis">    1.57    1.58</time>
   <time name="orth">    0.05    0.05</time>
   <time name="total">    2.52    2.54</time>
   <energy>
    <i name="e_fr_energy">    -19.25853870 </i>
    <i name="e_wo_entrp">    -19.25406134 </i>
    <i name="e_0_energy">    -19.25704625 </i>
   </energy>
  </scstep>
  <scstep>
   <time name="diag">    0.53    0.53</time>
   <time name="diis">    1.76    1.77</time>
   <time name="orth">    0.06    0.06</time>
   <time name="total">    2.72    2.73</time>
   <energy>
    <i name="e_fr_energy">    -19.26063226 </i>
    <i name="e_wo_entrp">    -19.25590174 </i>
    <i name="e_0_energy">    -19.25905542 </i>
   </energy>
  </scstep>
  <scstep>
   <time name="diag">    0.53    0.54</time>
   <time name="diis">    1.30    1.31</time>
   <time name="orth">    0.05    0.05</time>
   <time name="total">    2.29    2.30</time>
   <energy>
    <i name="e_fr_energy">    -19.26087082 </i>
    <i name="e_wo_entrp">    -19.25608658 </i>
    <i name="e_0_energy">    -19.25927607 </i>
   </energy>
  </scstep>
  <scstep>
   <time name="diag">    0.53    0.53</time>
   <time name="diis">    1.18    1.19</time>
   <time name="orth">    0.05    0.05</time>
   <time name="total">    2.07    2.08</time>
   <energy>
    <i name="alphaZ">    266.40160748 </i>
    <i name="ewald">  -2625.65646788 </i>
    <i name="hartreedc">   -581.07702668 </i>
    <i name="XCdc">    108.16272431 </i>
    <i name="pawpsdc">   2430.25574363 </i>
    <i name="pawaedc">  -2531.36547133 </i>
    <i name="eentropy">     -0.00480103 </i>
    <i name="bandstr">   -381.09927942 </i>
    <i name="atom">   3295.12203283 </i>
    <i name="e_fr_energy">    -19.26093808 </i>
    <i name="e_wo_entrp">    -19.25613705 </i>
    <i name="e_0_energy">    -19.25933774 </i>
   </energy>
  </scstep>
  <structure>
   <crystal>
    <varray name="basis" >
     <v>      -1.17324400       2.03211900       1.65952100 </v>
     <v>      -1.17353000      -2.03211900       1.65931900 </v>
     <v>       2.34663200       0.00024700       1.65932000 </v>
    </varray>
    <i name="volume">     23.73950901 </i>
    <varray name="rec_basis" >
     <v>      -0.14205625       0.24604860       0.20086117 </v>
     <v>      -0.14202172      -0.24604857       0.20088559 </v>
     <v>       0.28409508      -0.00002998       0.20088554 </v>
    </varray>
   </crystal>
   <varray name="positions" >
    <v>       0.50000000       0.50000000       0.50000000 </v>
    <v>       0.00000000       0.00000000       0.00000000 </v>
   </varray>
  </structure>
  <varray name="forces" >
   <v>      -0.00000000       0.00000000       0.00000000 </v>
   <v>       0.00000000      -0.00000000      -0.00000000 </v>
  </varray>
  <varray name="stress" >
   <v>     -66.44321150      -0.11189124       0.04565025 </v>
   <v>      -0.11189124     -66.31400910      -0.07911529 </v>
   <v>       0.04565025      -0.07911529     -66.47552273 </v>
  </varray>
  <energy>
   <i name="e_fr_energy">    -19.26093808 </i>
   <i name="e_wo_entrp">    -19.25613705 </i>
   <i name="e_0_energy">    -19.25933774 </i>
  </energy>
  <time name="totalsc">   48.07   48.39</time>
 </calculation>
 <calculation>
  <scstep>
   <time name="dav">    6.08    6.12</time>
   <time name="total">    6.46    6.50</time>
   <energy>
    <i name="alphaZ">    286.30873651 </i>
    <i name="ewald">  -2689.49345604 </i>
    <i name="hartreedc">   -595.17630568 </i>
    <i name="XCdc">    111.01202240 </i>
    <i name="pawpsdc">   2430.48664577 </i>
    <i name="pawaedc">  -2531.58760485 </i>
    <i name="eentropy">     -0.00552025 </i>
    <i name="bandstr">   -327.88339860 </i>
    <i name="atom">   3295.12203283 </i>
    <i name="e_fr_energy">    -21.21684790 </i>
    <i name="e_wo_entrp">    -21.21132765 </i>
    <i name="e_0_energy">    -21.21500782 </i>
   </energy>
  </scstep>
  <scstep>
   <time name="diag">    0.53    0.53</time>
   <time name="diis">    1.99    2.00</time>
   <time name="orth">    0.05    0.05</time>
   <time name="total">    2.95    2.97</time>
   <energy>
    <i name="e_fr_energy">    -19.24857502 </i>
    <i name="e_wo_entrp">    -19.24286302 </i>
    <i name="e_0_energy">    -19.24667102 </i>
   </energy>
  </scstep>
  <scstep>
   <time name="diag">    0.53    0.54</time>
   <time name="diis">    1.76    1.77</time>
   <time name="orth">    0.05    0.05</time>
   <time name="total">    2.73    2.75</time>
   <energy>
    <i name="e_fr_energy">    -19.24507500 </i>
    <i name="e_wo_entrp">    -19.23878342 </i>
    <i name="e_0_energy">    -19.24297781 </i>
   </energy>
  </scstep>
  <scstep>
   <time name="diag">    0.53    0.53</time>
   <time name="diis">    1.72    1.73</time>
   <time name="orth">    0.05    0.05</time>
   <time name="total">    2.67    2.69</time>
   <energy>
    <i name="e_fr_energy">    -19.22956176 </i>
    <i name="e_wo_entrp">    -19.22427873 </i>
    <i name="e_0_energy">    -19.22780075 </i>
   </energy>
  </scstep>
  <scstep>
   <time name="diag">    0.53    0.53</time>
   <time name="diis">    1.97    1.98</time>
   <time name="orth">    0.06    0.06</time>
   <time name="total">    2.93    2.94</time>
   <energy>
    <i name="e_fr_energy">    -19.22535944 </i>
    <i name="e_wo_entrp">    -19.21929436 </i>
    <i name="e_0_energy">    -19.22333775 </i>
   </energy>
  </scstep>
  <scstep>
   <time name="diag">    0.53    0.53</time>
   <time name="diis">    1.57    1.58</time>
   <time name="orth">    0.05    0.05</time>
   <time name="total">    2.48    2.49</time>
   <energy>
    <i name="alphaZ">    286.30873651 </i>
    <i name="ewald">  -2689.49345604 </i>
    <i name="hartreedc">   -553.58259454 </i>
    <i name="XCdc">    108.82330806 </i>
    <i name="pawpsdc">   2482.68436490 </i>
    <i name="pawaedc">  -2584.17658714 </i>
    <i name="eentropy">     -0.00607951 </i>
    <i name="bandstr">   -364.90501049 </i>
    <i name="atom">   3295.12203283 </i>
    <i name="e_fr_energy">    -19.22528541 </i>
    <i name="e_wo_entrp">    -19.21920589 </i>
    <i name="e_0_energy">    -19.22325890 </i>
   </energy>
  </scstep>
  <structure>
   <crystal>
    <varray name="basis" >
     <v>      -1.14543689       1.98395563       1.62001621 </v>
     <v>      -1.14555357      -1.98395563       1.61993392 </v>
     <v>       2.29093305       0.00010038       1.61993486 </v>
    </varray>
    <i name="volume">     22.08889410 </i>
    <varray name="rec_basis" >
     <v>      -0.14550486       0.25202178       0.20575926 </v>
     <v>      -0.14549014      -0.25202175       0.20576967 </v>
     <v>       0.29100222      -0.00001282       0.20576962 </v>
    </varray>
   </crystal>
   <varray name="positions" >
    <v>       0.50000000       0.50000000       0.50000000 </v>
    <v>       1.00000000       1.00000000       0.00000000 </v>
   </varray>
  </structure>
  <varray name="forces" >
   <v>       0.00000000      -0.00000000      -0.00000000 </v>
   <v>      -0.00000000       0.00000000       0.00000000 </v>
  </varray>
  <varray name="stress" >
   <v>     134.22300665      -0.05690459       0.02328722 </v>
   <v>      -0.05690459     134.28871157      -0.04024495 </v>
   <v>       0.02328722      -0.04024495     134.20660094 </v>
  </varray>
  <energy>
   <i name="e_fr_energy">    -19.22528541 </i>
   <i name="e_wo_entrp">    -19.21920589 </i>
   <i name="e_0_energy">    -19.22325890 </i>
  </energy>
  <time name="totalsc">   24.90   25.06</time>
 </calculation>
 <calculation>
  <scstep>
   <time name="dav">    5.96    6.00</time>
   <time name="total">    6.34    6.38</time>
   <energy>
    <i name="alphaZ">    272.49307542 </i>
    <i name="ewald">  -2645.51836645 </i>
    <i name="hartreedc">   -544.58519693 </i>
    <i name="XCdc">    106.90401696 </i>
    <i name="pawpsdc">   2482.64234930 </i>
    <i name="pawaedc">  -2584.08105087 </i>
    <i name="eentropy">      0.00064954 </i>
    <i name="bandstr">   -403.23665556 </i>
    <i name="atom">   3295.12203283 </i>
    <i name="e_fr_energy">    -20.25914575 </i>
    <i name="e_wo_entrp">    -20.25979529 </i>
    <i name="e_0_energy">    -20.25936227 </i>
   </energy>
  </scstep>
  <scstep>
   <time name="diag">    0.75    0.76</time>
   <time name="diis">    1.92    1.94</time>
   <time name="orth">    0.05    0.05</time>
   <time name="total">    3.10    3.12</time>
   <energy>
    <i name="e_fr_energy">    -19.29594777 </i>
    <i name="e_wo_entrp">    -19.29051923 </i>
    <i name="e_0_energy">    -19.29413826 </i>
   </energy>
  </scstep>
  <scstep>
   <time name="diag">    0.53    0.53</time>
   <time name="diis">    1.72    1.73</time>
   <time name="orth">    0.05    0.05</time>
   <time name="total">    2.70    2.72</time>
   <energy>
    <i name="e_fr_energy">    -19.28072076 </i>
    <i name="e_wo_entrp">    -19.27539242 </i>
    <i name="e_0_energy">    -19.27894465 </i>
   </energy>
  </scstep>
  <scstep>
   <time name="diag">    0.53    0.53</time>
   <time name="diis">    1.66    1.67</time>
   <time name="orth">    0.05    0.05</time>
   <time name="total">    2.61    2.63</time>
   <energy>
    <i name="e_fr_energy">    -19.27212781 </i>
    <i name="e_wo_entrp">    -19.26675830 </i>
    <i name="e_0_energy">    -19.27033797 </i>
   </energy>
  </scstep>
  <scstep>
   <time name="diag">    0.53    0.53</time>
   <time name="diis">    1.88    1.89</time>
   <time name="orth">    0.05    0.05</time>
   <time name="total">    2.84    2.86</time>
   <energy>
    <i name="e_fr_energy">    -19.27102539 </i>
    <i name="e_wo_entrp">    -19.26565090 </i>
    <i name="e_0_energy">    -19.26923389 </i>
   </energy>
  </scstep>
  <scstep>
   <time name="diag">    0.53    0.53</time>
   <time name="diis">    1.27    1.27</time>
   <time name="orth">    0.05    0.05</time>
   <time name="total">    2.18    2.19</time>
   <energy>
    <i name="alphaZ">    272.49307542 </i>
    <i name="ewald">  -2645.51836645 </i>
    <i name="hartreedc">   -572.45894642 </i>
    <i name="XCdc">    108.36650187 </i>
    <i name="pawpsdc">   2446.07333825 </i>
    <i name="pawaedc">  -2547.21957522 </i>
    <i name="eentropy">     -0.00537551 </i>
    <i name="bandstr">   -376.12367241 </i>
    <i name="atom">   3295.12203283 </i>
    <i name="e_fr_energy">    -19.27098763 </i>
    <i name="e_wo_entrp">    -19.26561212 </i>
    <i name="e_0_energy">    -19.26919580 </i>
   </energy>
  </scstep>
  <structure>
   <crystal>
    <varray name="basis" >
     <v>      -1.16444843       2.01688462       1.64702538 </v>
     <v>      -1.16468088      -2.01688461       1.64686124 </v>
     <v>       2.32901406       0.00020062       1.64686223 </v>
    </varray>
    <i name="volume">     23.20882228 </i>
    <varray name="rec_basis" >
     <v>      -0.14312926       0.24790710       0.20238506 </v>
     <v>      -0.14310078      -0.24790708       0.20240520 </v>
     <v>       0.28624413      -0.00002473       0.20240515 </v>
    </varray>
   </crystal>
   <varray name="positions" >
    <v>       0.50000000       0.50000000       0.50000000 </v>
    <v>       0.00000000       0.00000000       0.00000000 </v>
   </varray>
  </structure>
  <varray name="forces" >
   <v>       0.00000000      -0.00000000       0.00000000 </v>
   <v>      -0.00000000       0.00000000      -0.00000000 </v>
  </varray>
  <varray name="stress" >
   <v>      -3.68553276      -0.09981211       0.04074652 </v>
   <v>      -0.09981211      -3.57027955      -0.07057764 </v>
   <v>       0.04074652      -0.07057764      -3.71434662 </v>
  </varray>
  <energy>
   <i name="e_fr_energy">    -19.27098763 </i>
   <i name="e_wo_entrp">    -19.26561212 </i>
   <i name="e_0_energy">    -19.26919580 </i>
  </energy>
  <time name="totalsc">   23.94   24.10</time>
  <eigenvalues>
   <array>
    <dimension dim="1">band</dimension>
    <dimension dim="2">kpoint</dimension>
    <dimension dim="3">spin</dimension>
    <field>eigene</field>
    <field>occ</field>
    <set>
     <set comment="spin 1">
      <set comment="kpoint 1">
       <r>  -36.2051    1.0000 </r>
       <r>  -36.2047    1.0000 </r>
       <r>  -36.1824    1.0000 </r>
       <r>  -35.6061    1.0000 </r>
       <r>  -35.5822    1.0000 </r>
       <r>  -35.5820    1.0000 </r>
       <r>   -0.6363    1.0000 </r>
       <r>    2.8472    1.0000 </r>
       <r>    2.8472    1.0000 </r>
       <r>    6.1379    1.0000 </r>
       <r>    6.1394    1.0000 </r>
       <r>    6.2624    1.0000 </r>
       <r>    8.1922   -0.0000 </r>
       <r>    8.1923   -0.0000 </r>
       <r>    9.2516   -0.0000 </r>
       <r>    9.4639   -0.0000 </r>
       <r>    9.4651   -0.0000 </r>
       <r>   17.6480    0.0000 </r>
       <r>   17.6488    0.0000 </r>
       <r>   17.8188    0.0000 </r>
       <r>   24.4014    0.0000 </r>
       <r>   24.4014    0.0000 </r>
       <r>   29.7263    0.0000 </r>
       <r>   29.7298    0.0000 </r>
       <r>   30.0695    0.0000 </r>
       <r>   30.8173    0.0000 </r>
       <r>   36.5194    0.0000 </r>
       <r>   36.5200    0.0000 </r>
       <r>   38.8527    0.0000 </r>
       <r>   39.7434    0.0000 </r>
       <r>   39.8892    0.0000 </r>
       <r>   39.8904    0.0000 </r>
      </set>
      <set comment="kpoint 2">
       <r>  -36.2181    1.0000 </r>
       <r>  -36.1824    1.0000 </r>
       <r>  -36.1491    1.0000 </r>
       <r>  -35.6592    1.0000 </r>
       <r>  -35.6021    1.0000 </r>
       <r>  -35.5910    1.0000 </r>
       <r>   -0.3378    1.0000 </r>
       <r>    3.0018    1.0000 </r>
       <r>    3.0148    1.0000 </r>
       <r>    6.0706    1.0000 </r>
       <r>    6.1213    1.0000 </r>
       <r>    6.4211    1.0000 </r>
       <r>    7.9951   -0.0000 </r>
       <r>    8.2761   -0.0000 </r>
       <r>    8.8104   -0.0000 </r>
       <r>    9.1007   -0.0000 </r>
       <r>    9.4454   -0.0000 </r>
       <r>   16.3441    0.0000 </r>
       <r>   18.2932    0.0000 </r>
       <r>   18.4113    0.0000 </r>
       <r>   24.4464    0.0000 </r>
       <r>   25.2124    0.0000 </r>
       <r>   28.7238    0.0000 </r>
       <r>   29.7477    0.0000 </r>
       <r>   30.1894    0.0000 </r>
       <r>   31.6338    0.0000 </r>
       <r>   35.2398    0.0000 </r>
       <r>   37.5650    0.0000 </r>
       <r>   38.1842    0.0000 </r>
       <r>   38.6944    0.0000 </r>
       <r>   39.7278    0.0000 </r>
       <r>   40.2626    0.0000 </r>
      </set>
      <set comment="kpoint 3">
       <r>  -36.2221    1.0000 </r>
       <r>  -36.1394    1.0000 </r>
       <r>  -36.1016    1.0000 </r>
       <r>  -35.7429    1.0000 </r>
       <r>  -35.6409    1.0000 </r>
       <r>  -35.6229    1.0000 </r>
       <r>    0.2329    1.0000 </r>
       <r>    3.2954    1.0000 </r>
       <r>    3.3045    1.0000 </r>
       <r>    6.0389    1.0000 </r>
       <r>    6.1006    1.0000 </r>
       <r>    6.6519    1.0044 </r>
       <r>    7.6222   -0.0005 </r>
       <r>    8.2279   -0.0000 </r>
       <r>    8.4300   -0.0000 </r>
       <r>    8.5310   -0.0000 </r>
       <r>    9.2573   -0.0000 </r>
       <r>   14.5350    0.0000 </r>
       <r>   19.4130    0.0000 </r>
       <r>   19.5099    0.0000 </r>
       <r>   24.5505    0.0000 </r>
       <r>   25.9138    0.0000 </r>
       <r>   27.5162    0.0000 </r>
       <r>   29.4684    0.0000 </r>
       <r>   30.1453    0.0000 </r>
       <r>   33.3900    0.0000 </r>
       <r>   33.4735    0.0000 </r>
       <r>   36.6030    0.0000 </r>
       <r>   37.6670    0.0000 </r>
       <r>   39.7140    0.0000 </r>
       <r>   40.2206    0.0000 </r>
       <r>   40.5758    0.0000 </r>
      </set>
      <set comment="kpoint 4">
       <r>  -36.2127    1.0000 </r>
       <r>  -36.0791    1.0000 </r>
       <r>  -36.0405    1.0000 </r>
       <r>  -35.8458    1.0000 </r>
       <r>  -35.6964    1.0000 </r>
       <r>  -35.6733    1.0000 </r>
       <r>    1.0197    1.0000 </r>
       <r>    3.5740    1.0000 </r>
       <r>    3.7416    1.0000 </r>
       <r>    6.0652    1.0000 </r>
       <r>    6.0910    1.0000 </r>
       <r>    6.9551    0.9433 </r>
       <r>    7.1257    0.3361 </r>
       <r>    7.6283   -0.0004 </r>
       <r>    7.9168   -0.0000 </r>
       <r>    8.6377   -0.0000 </r>
       <r>    8.9528   -0.0000 </r>
       <r>   12.7340    0.0000 </r>
       <r>   20.8108    0.0000 </r>
       <r>   20.9102    0.0000 </r>
       <r>   24.7484    0.0000 </r>
       <r>   26.3331    0.0000 </r>
       <r>   26.4236    0.0000 </r>
       <r>   28.5650    0.0000 </r>
       <r>   29.5727    0.0000 </r>
       <r>   31.7040    0.0000 </r>
       <r>   35.8849    0.0000 </r>
       <r>   36.4913    0.0000 </r>
       <r>   37.5648    0.0000 </r>
       <r>   39.7386    0.0000 </r>
       <r>   40.1987    0.0000 </r>
       <r>   40.8267    0.0000 </r>
      </set>
      <set comment="kpoint 5">
       <r>  -36.1835    1.0000 </r>
       <r>  -36.0060    1.0000 </r>
       <r>  -35.9687    1.0000 </r>
       <r>  -35.9534    1.0000 </r>
       <r>  -35.7653    1.0000 </r>
       <r>  -35.7379    1.0000 </r>
       <r>    1.9257    1.0000 </r>
       <r>    3.6775    1.0000 </r>
       <r>    4.2905    1.0000 </r>
       <r>    6.0100    1.0000 </r>
       <r>    6.1754    1.0000 </r>
       <r>    6.6704    1.0062 </r>
       <r>    7.1037    0.4259 </r>
       <r>    7.3211   -0.0350 </r>
       <r>    7.3611   -0.0326 </r>
       <r>    8.5736   -0.0000 </r>
       <r>    8.9070   -0.0000 </r>
       <r>   11.1790    0.0000 </r>
       <r>   22.3016    0.0000 </r>
       <r>   22.4691    0.0000 </r>
       <r>   25.1190    0.0000 </r>
       <r>   25.4964    0.0000 </r>
       <r>   26.7512    0.0000 </r>
       <r>   27.1807    0.0000 </r>
       <r>   28.4226    0.0000 </r>
       <r>   30.0272    0.0000 </r>
       <r>   37.2665    0.0000 </r>
       <r>   38.4295    0.0000 </r>
       <r>   38.5633    0.0000 </r>
       <r>   39.7754    0.0000 </r>
       <r>   40.2014    0.0000 </r>
       <r>   40.9950    0.0000 </r>
      </set>
      <set comment="kpoint 6">
       <r>  -36.1299    1.0000 </r>
       <r>  -36.0515    1.0000 </r>
       <r>  -35.9255    1.0000 </r>
       <r>  -35.8908    1.0000 </r>
       <r>  -35.8434    1.0000 </r>
       <r>  -35.8121    1.0000 </r>
       <r>    2.7971    1.0000 </r>
       <r>    3.4309    1.0000 </r>
       <r>    4.9163    1.0000 </r>
       <r>    5.5551    1.0000 </r>
       <r>    6.3849    1.0000 </r>
       <r>    6.6418    1.0037 </r>
       <r>    6.6928    1.0089 </r>
       <r>    6.9211    0.9962 </r>
       <r>    7.7300   -0.0000 </r>
       <r>    8.1560   -0.0000 </r>
       <r>    9.3152   -0.0000 </r>
       <r>   10.0275   -0.0000 </r>
       <r>   23.6459    0.0000 </r>
       <r>   24.0730    0.0000 </r>
       <r>   24.6482    0.0000 </r>
       <r>   25.6478    0.0000 </r>
       <r>   25.8354    0.0000 </r>
       <r>   27.0328    0.0000 </r>
       <r>   27.4425    0.0000 </r>
       <r>   28.5530    0.0000 </r>
       <r>   38.3820    0.0000 </r>
       <r>   39.4944    0.0000 </r>
       <r>   39.7681    0.0000 </r>
       <r>   39.8281    0.0000 </r>
       <r>   39.9706    0.0000 </r>
       <r>   41.8027    0.0000 </r>
      </set>
      <set comment="kpoint 7">
       <r>  -36.1298    1.0000 </r>
       <r>  -36.0516    1.0000 </r>
       <r>  -35.9255    1.0000 </r>
       <r>  -35.8908    1.0000 </r>
       <r>  -35.8434    1.0000 </r>
       <r>  -35.8121    1.0000 </r>
       <r>    2.7972    1.0000 </r>
       <r>    3.4309    1.0000 </r>
       <r>    4.9164    1.0000 </r>
       <r>    5.5553    1.0000 </r>
       <r>    6.3856    1.0000 </r>
       <r>    6.6413    1.0036 </r>
       <r>    6.6923    1.0088 </r>
       <r>    6.9213    0.9960 </r>
       <r>    7.7299   -0.0000 </r>
       <r>    8.1559   -0.0000 </r>
       <r>    9.3151   -0.0000 </r>
       <r>   10.0276   -0.0000 </r>
       <r>   23.6435    0.0000 </r>
       <r>   24.0713    0.0000 </r>
       <r>   24.6506    0.0000 </r>
       <r>   25.6501    0.0000 </r>
       <r>   25.8381    0.0000 </r>
       <r>   27.0299    0.0000 </r>
       <r>   27.4446    0.0000 </r>
       <r>   28.5502    0.0000 </r>
       <r>   38.3786    0.0000 </r>
       <r>   39.4972    0.0000 </r>
       <r>   39.7680    0.0000 </r>
       <r>   39.8302    0.0000 </r>
       <r>   39.9708    0.0000 </r>
       <r>   41.8046    0.0000 </r>
      </set>
      <set comment="kpoint 8">
       <r>  -36.1833    1.0000 </r>
       <r>  -36.0060    1.0000 </r>
       <r>  -35.9687    1.0000 </r>
       <r>  -35.9534    1.0000 </r>
       <r>  -35.7653    1.0000 </r>
       <r>  -35.7380    1.0000 </r>
       <r>    1.9259    1.0000 </r>
       <r>    3.6776    1.0000 </r>
       <r>    4.2907    1.0000 </r>
       <r>    6.0107    1.0000 </r>
       <r>    6.1762    1.0000 </r>
       <r>    6.6694    1.0060 </r>
       <r>    7.1036    0.4266 </r>
       <r>    7.3207   -0.0350 </r>
       <r>    7.3612   -0.0326 </r>
       <r>    8.5732   -0.0000 </r>
       <r>    8.9068   -0.0000 </r>
       <r>   11.1789    0.0000 </r>
       <r>   22.3001    0.0000 </r>
       <r>   22.4680    0.0000 </r>
       <r>   25.1208    0.0000 </r>
       <r>   25.4985    0.0000 </r>
       <r>   26.7525    0.0000 </r>
       <r>   27.1833    0.0000 </r>
       <r>   28.4202    0.0000 </r>
       <r>   30.0240    0.0000 </r>
       <r>   37.2646    0.0000 </r>
       <r>   38.4295    0.0000 </r>
       <r>   38.5652    0.0000 </r>
       <r>   39.7751    0.0000 </r>
       <r>   40.2039    0.0000 </r>
       <r>   40.9968    0.0000 </r>
      </set>
      <set comment="kpoint 9">
       <r>  -36.2124    1.0000 </r>
       <r>  -36.0791    1.0000 </r>
       <r>  -36.0406    1.0000 </r>
       <r>  -35.8458    1.0000 </r>
       <r>  -35.6964    1.0000 </r>
       <r>  -35.6735    1.0000 </r>
       <r>    1.0199    1.0000 </r>
       <r>    3.5740    1.0000 </r>
       <r>    3.7418    1.0000 </r>
       <r>    6.0663    1.0000 </r>
       <r>    6.0916    1.0000 </r>
       <r>    6.9543    0.9447 </r>
       <r>    7.1250    0.3391 </r>
       <r>    7.6285   -0.0004 </r>
       <r>    7.9168   -0.0000 </r>
       <r>    8.6375   -0.0000 </r>
       <r>    8.9522   -0.0000 </r>
       <r>   12.7338    0.0000 </r>
       <r>   20.8099    0.0000 </r>
       <r>   20.9096    0.0000 </r>
       <r>   24.7495    0.0000 </r>
       <r>   26.3338    0.0000 </r>
       <r>   26.4255    0.0000 </r>
       <r>   28.5674    0.0000 </r>
       <r>   29.5706    0.0000 </r>
       <r>   31.7009    0.0000 </r>
       <r>   35.8859    0.0000 </r>
       <r>   36.4907    0.0000 </r>
       <r>   37.5645    0.0000 </r>
       <r>   39.7385    0.0000 </r>
       <r>   40.1991    0.0000 </r>
       <r>   40.8273    0.0000 </r>
      </set>
      <set comment="kpoint 10">
       <r>  -36.2218    1.0000 </r>
       <r>  -36.1394    1.0000 </r>
       <r>  -36.1018    1.0000 </r>
       <r>  -35.7428    1.0000 </r>
       <r>  -35.6409    1.0000 </r>
       <r>  -35.6231    1.0000 </r>
       <r>    0.2331    1.0000 </r>
       <r>    3.2954    1.0000 </r>
       <r>    3.3046    1.0000 </r>
       <r>    6.0402    1.0000 </r>
       <r>    6.1010    1.0000 </r>
       <r>    6.6508    1.0043 </r>
       <r>    7.6216   -0.0005 </r>
       <r>    8.2285   -0.0000 </r>
       <r>    8.4298   -0.0000 </r>
       <r>    8.5309   -0.0000 </r>
       <r>    9.2565   -0.0000 </r>
       <r>   14.5346    0.0000 </r>
       <r>   19.4126    0.0000 </r>
       <r>   19.5097    0.0000 </r>
       <r>   24.5511    0.0000 </r>
       <r>   25.9141    0.0000 </r>
       <r>   27.5181    0.0000 </r>
       <r>   29.4698    0.0000 </r>
       <r>   30.1433    0.0000 </r>
       <r>   33.3908    0.0000 </r>
       <r>   33.4711    0.0000 </r>
       <r>   36.6036    0.0000 </r>
       <r>   37.6665    0.0000 </r>
       <r>   39.7139    0.0000 </r>
       <r>   40.2203    0.0000 </r>
       <r>   40.5756    0.0000 </r>
      </set>
      <set comment="kpoint 11">
       <r>  -36.2178    1.0000 </r>
       <r>  -36.1824    1.0000 </r>
       <r>  -36.1494    1.0000 </r>
       <r>  -35.6591    1.0000 </r>
       <r>  -35.6021    1.0000 </r>
       <r>  -35.5912    1.0000 </r>
       <r>   -0.3377    1.0000 </r>
       <r>    3.0019    1.0000 </r>
       <r>    3.0148    1.0000 </r>
       <r>    6.0721    1.0000 </r>
       <r>    6.1215    1.0000 </r>
       <r>    6.4197    1.0000 </r>
       <r>    7.9948   -0.0000 </r>
       <r>    8.2760   -0.0000 </r>
       <r>    8.8114   -0.0000 </r>
       <r>    9.1007   -0.0000 </r>
       <r>    9.4443   -0.0000 </r>
       <r>   16.3437    0.0000 </r>
       <r>   18.2930    0.0000 </r>
       <r>   18.4113    0.0000 </r>
       <r>   24.4467    0.0000 </r>
       <r>   25.2126    0.0000 </r>
       <r>   28.7261    0.0000 </r>
       <r>   29.7483    0.0000 </r>
       <r>   30.1871    0.0000 </r>
       <r>   31.6344    0.0000 </r>
       <r>   35.2383    0.0000 </r>
       <r>   37.5666    0.0000 </r>
       <r>   38.1853    0.0000 </r>
       <r>   38.6913    0.0000 </r>
       <r>   39.7277    0.0000 </r>
       <r>   40.2629    0.0000 </r>
      </set>
      <set comment="kpoint 12">
       <r>  -36.2047    1.0000 </r>
       <r>  -36.2047    1.0000 </r>
       <r>  -36.1828    1.0000 </r>
       <r>  -35.6059    1.0000 </r>
       <r>  -35.5822    1.0000 </r>
       <r>  -35.5822    1.0000 </r>
       <r>   -0.6363    1.0000 </r>
       <r>    2.8472    1.0000 </r>
       <r>    2.8472    1.0000 </r>
       <r>    6.1394    1.0000 </r>
       <r>    6.1394    1.0000 </r>
       <r>    6.2609    1.0000 </r>
       <r>    8.1922   -0.0000 </r>
       <r>    8.1922   -0.0000 </r>
       <r>    9.2528   -0.0000 </r>
       <r>    9.4638   -0.0000 </r>
       <r>    9.4639   -0.0000 </r>
       <r>   17.6480    0.0000 </r>
       <r>   17.6480    0.0000 </r>
       <r>   17.8194    0.0000 </r>
       <r>   24.4015    0.0000 </r>
       <r>   24.4015    0.0000 </r>
       <r>   29.7300    0.0000 </r>
       <r>   29.7300    0.0000 </r>
       <r>   30.0658    0.0000 </r>
       <r>   30.8175    0.0000 </r>
       <r>   36.5193    0.0000 </r>
       <r>   36.5193    0.0000 </r>
       <r>   38.8554    0.0000 </r>
       <r>   39.7432    0.0000 </r>
       <r>   39.8882    0.0000 </r>
       <r>   39.8882    0.0000 </r>
      </set>
      <set comment="kpoint 13">
       <r>  -36.2179    1.0000 </r>
       <r>  -36.1827    1.0000 </r>
       <r>  -36.1490    1.0000 </r>
       <r>  -35.6592    1.0000 </r>
       <r>  -35.6020    1.0000 </r>
       <r>  -35.5912    1.0000 </r>
       <r>   -0.3378    1.0000 </r>
       <r>    3.0018    1.0000 </r>
       <r>    3.0148    1.0000 </r>
       <r>    6.0720    1.0000 </r>
       <r>    6.1203    1.0000 </r>
       <r>    6.4208    1.0000 </r>
       <r>    7.9950   -0.0000 </r>
       <r>    8.2761   -0.0000 </r>
       <r>    8.8103   -0.0000 </r>
       <r>    9.1015   -0.0000 </r>
       <r>    9.4446   -0.0000 </r>
       <r>   16.3439    0.0000 </r>
       <r>   18.2937    0.0000 </r>
       <r>   18.4108    0.0000 </r>
       <r>   24.4465    0.0000 </r>
       <r>   25.2124    0.0000 </r>
       <r>   28.7251    0.0000 </r>
       <r>   29.7456    0.0000 </r>
       <r>   30.1905    0.0000 </r>
       <r>   31.6340    0.0000 </r>
       <r>   35.2389    0.0000 </r>
       <r>   37.5631    0.0000 </r>
       <r>   38.1857    0.0000 </r>
       <r>   38.6950    0.0000 </r>
       <r>   39.7278    0.0000 </r>
       <r>   40.2620    0.0000 </r>
      </set>
      <set comment="kpoint 14">
       <r>  -36.2422    1.0000 </r>
       <r>  -36.1698    1.0000 </r>
       <r>  -36.0985    1.0000 </r>
       <r>  -35.7285    1.0000 </r>
       <r>  -35.6181    1.0000 </r>
       <r>  -35.5829    1.0000 </r>
       <r>   -0.0499    1.0000 </r>
       <r>    3.1410    1.0000 </r>
       <r>    3.1875    1.0000 </r>
       <r>    5.9136    1.0000 </r>
       <r>    6.0616    1.0000 </r>
       <r>    6.6821    1.0075 </r>
       <r>    7.9963   -0.0000 </r>
       <r>    8.2219   -0.0000 </r>
       <r>    8.2718   -0.0000 </r>
       <r>    8.8456   -0.0000 </r>
       <r>    9.5148   -0.0000 </r>
       <r>   16.4765    0.0000 </r>
       <r>   17.3773    0.0000 </r>
       <r>   18.9110    0.0000 </r>
       <r>   24.8406    0.0000 </r>
       <r>   25.9140    0.0000 </r>
       <r>   28.0229    0.0000 </r>
       <r>   29.1772    0.0000 </r>
       <r>   30.4072    0.0000 </r>
       <r>   32.3179    0.0000 </r>
       <r>   35.9590    0.0000 </r>
       <r>   36.1068    0.0000 </r>
       <r>   37.9487    0.0000 </r>
       <r>   38.4182    0.0000 </r>
       <r>   39.8414    0.0000 </r>
       <r>   40.2229    0.0000 </r>
      </set>
      <set comment="kpoint 15">
       <r>  -36.2638    1.0000 </r>
       <r>  -36.1295    1.0000 </r>
       <r>  -36.0378    1.0000 </r>
       <r>  -35.8249    1.0000 </r>
       <r>  -35.6541    1.0000 </r>
       <r>  -35.5954    1.0000 </r>
       <r>    0.4974    1.0000 </r>
       <r>    3.3876    1.0000 </r>
       <r>    3.4983    1.0000 </r>
       <r>    5.7848    1.0000 </r>
       <r>    5.9919    1.0000 </r>
       <r>    7.0070    0.8077 </r>
       <r>    7.6578   -0.0002 </r>
       <r>    7.7620   -0.0000 </r>
       <r>    8.3268   -0.0000 </r>
       <r>    8.3462   -0.0000 </r>
       <r>    9.4682   -0.0000 </r>
       <r>   14.8948    0.0000 </r>
       <r>   18.0715    0.0000 </r>
       <r>   19.8992    0.0000 </r>
       <r>   25.0221    0.0000 </r>
       <r>   26.7528    0.0000 </r>
       <r>   26.8806    0.0000 </r>
       <r>   28.6317    0.0000 </r>
       <r>   30.4675    0.0000 </r>
       <r>   33.8535    0.0000 </r>
       <r>   34.9134    0.0000 </r>
       <r>   35.1862    0.0000 </r>
       <r>   37.2676    0.0000 </r>
       <r>   39.7531    0.0000 </r>
       <r>   40.1330    0.0000 </r>
       <r>   40.4268    0.0000 </r>
      </set>
      <set comment="kpoint 16">
       <r>  -36.2697    1.0000 </r>
       <r>  -36.0716    1.0000 </r>
       <r>  -35.9694    1.0000 </r>
       <r>  -35.9341    1.0000 </r>
       <r>  -35.7062    1.0000 </r>
       <r>  -35.6300    1.0000 </r>
       <r>    1.2432    1.0000 </r>
       <r>    3.6539    1.0000 </r>
       <r>    3.8937    1.0000 </r>
       <r>    5.7304    1.0000 </r>
       <r>    5.9138    1.0000 </r>
       <r>    7.0798    0.5267 </r>
       <r>    7.3721   -0.0306 </r>
       <r>    7.4185   -0.0202 </r>
       <r>    7.7919   -0.0000 </r>
       <r>    8.5626   -0.0000 </r>
       <r>    9.2669   -0.0000 </r>
       <r>   13.0608    0.0000 </r>
       <r>   19.2354    0.0000 </r>
       <r>   21.1899    0.0000 </r>
       <r>   25.2440    0.0000 </r>
       <r>   25.4611    0.0000 </r>
       <r>   27.6161    0.0000 </r>
       <r>   27.6836    0.0000 </r>
       <r>   29.9596    0.0000 </r>
       <r>   33.4552    0.0000 </r>
       <r>   34.9560    0.0000 </r>
       <r>   36.1276    0.0000 </r>
       <r>   37.1408    0.0000 </r>
       <r>   39.8007    0.0000 </r>
       <r>   39.9144    0.0000 </r>
       <r>   40.6892    0.0000 </r>
      </set>
      <set comment="kpoint 17">
       <r>  -36.2528    1.0000 </r>
       <r>  -36.0424    1.0000 </r>
       <r>  -36.0012    1.0000 </r>
       <r>  -35.8957    1.0000 </r>
       <r>  -35.7714    1.0000 </r>
       <r>  -35.6823    1.0000 </r>
       <r>    2.0872    1.0000 </r>
       <r>    3.7363    1.0000 </r>
       <r>    4.3699    1.0000 </r>
       <r>    5.7007    1.0000 </r>
       <r>    5.8404    1.0000 </r>
       <r>    6.6059    1.0018 </r>
       <r>    7.1151    0.3788 </r>
       <r>    7.3768   -0.0297 </r>
       <r>    7.7853   -0.0000 </r>
       <r>    8.8482   -0.0000 </r>
       <r>    8.9556   -0.0000 </r>
       <r>   11.4237    0.0000 </r>
       <r>   20.4971    0.0000 </r>
       <r>   22.6292    0.0000 </r>
       <r>   24.2277    0.0000 </r>
       <r>   25.6242    0.0000 </r>
       <r>   26.4930    0.0000 </r>
       <r>   28.3314    0.0000 </r>
       <r>   28.8107    0.0000 </r>
       <r>   31.8964    0.0000 </r>
       <r>   35.5472    0.0000 </r>
       <r>   37.8240    0.0000 </r>
       <r>   38.3755    0.0000 </r>
       <r>   39.1194    0.0000 </r>
       <r>   40.0041    0.0000 </r>
       <r>   40.4213    0.0000 </r>
      </set>
      <set comment="kpoint 18">
       <r>  -36.2088    1.0000 </r>
       <r>  -36.1371    1.0000 </r>
       <r>  -35.9240    1.0000 </r>
       <r>  -35.8456    1.0000 </r>
       <r>  -35.8202    1.0000 </r>
       <r>  -35.7473    1.0000 </r>
       <r>    2.8860    1.0000 </r>
       <r>    3.4773    1.0000 </r>
       <r>    4.8960    1.0000 </r>
       <r>    5.3877    1.0000 </r>
       <r>    5.9763    1.0000 </r>
       <r>    6.2423    1.0000 </r>
       <r>    7.0317    0.7210 </r>
       <r>    7.1341    0.3033 </r>
       <r>    8.1945   -0.0000 </r>
       <r>    8.5861   -0.0000 </r>
       <r>    9.3140   -0.0000 </r>
       <r>   10.1469   -0.0000 </r>
       <r>   21.7655    0.0000 </r>
       <r>   23.0069    0.0000 </r>
       <r>   24.0404    0.0000 </r>
       <r>   25.2939    0.0000 </r>
       <r>   26.3202    0.0000 </r>
       <r>   27.4525    0.0000 </r>
       <r>   29.2517    0.0000 </r>
       <r>   30.4567    0.0000 </r>
       <r>   36.5354    0.0000 </r>
       <r>   37.6495    0.0000 </r>
       <r>   38.9002    0.0000 </r>
       <r>   39.5502    0.0000 </r>
       <r>   40.2010    0.0000 </r>
       <r>   40.6482    0.0000 </r>
      </set>
      <set comment="kpoint 19">
       <r>  -36.2086    1.0000 </r>
       <r>  -36.1372    1.0000 </r>
       <r>  -35.9240    1.0000 </r>
       <r>  -35.8456    1.0000 </r>
       <r>  -35.8201    1.0000 </r>
       <r>  -35.7475    1.0000 </r>
       <r>    2.8862    1.0000 </r>
       <r>    3.4774    1.0000 </r>
       <r>    4.8961    1.0000 </r>
       <r>    5.3879    1.0000 </r>
       <r>    5.9770    1.0000 </r>
       <r>    6.2418    1.0000 </r>
       <r>    7.0313    0.7226 </r>
       <r>    7.1342    0.3029 </r>
       <r>    8.1944   -0.0000 </r>
       <r>    8.5859   -0.0000 </r>
       <r>    9.3138   -0.0000 </r>
       <r>   10.1469   -0.0000 </r>
       <r>   21.7633    0.0000 </r>
       <r>   23.0095    0.0000 </r>
       <r>   24.0385    0.0000 </r>
       <r>   25.2961    0.0000 </r>
       <r>   26.3232    0.0000 </r>
       <r>   27.4493    0.0000 </r>
       <r>   29.2543    0.0000 </r>
       <r>   30.4535    0.0000 </r>
       <r>   36.5322    0.0000 </r>
       <r>   37.6539    0.0000 </r>
       <r>   38.9002    0.0000 </r>
       <r>   39.5501    0.0000 </r>
       <r>   40.2010    0.0000 </r>
       <r>   40.6488    0.0000 </r>
      </set>
      <set comment="kpoint 20">
       <r>  -36.2526    1.0000 </r>
       <r>  -36.0425    1.0000 </r>
       <r>  -36.0012    1.0000 </r>
       <r>  -35.8957    1.0000 </r>
       <r>  -35.7714    1.0000 </r>
       <r>  -35.6824    1.0000 </r>
       <r>    2.0875    1.0000 </r>
       <r>    3.7364    1.0000 </r>
       <r>    4.3701    1.0000 </r>
       <r>    5.7013    1.0000 </r>
       <r>    5.8412    1.0000 </r>
       <r>    6.6056    1.0018 </r>
       <r>    7.1142    0.3824 </r>
       <r>    7.3767   -0.0297 </r>
       <r>    7.7849   -0.0000 </r>
       <r>    8.8479   -0.0000 </r>
       <r>    8.9551   -0.0000 </r>
       <r>   11.4234    0.0000 </r>
       <r>   20.4953    0.0000 </r>
       <r>   22.6281    0.0000 </r>
       <r>   24.2305    0.0000 </r>
       <r>   25.6263    0.0000 </r>
       <r>   26.4948    0.0000 </r>
       <r>   28.3333    0.0000 </r>
       <r>   28.8078    0.0000 </r>
       <r>   31.8927    0.0000 </r>
       <r>   35.5453    0.0000 </r>
       <r>   37.8238    0.0000 </r>
       <r>   38.3799    0.0000 </r>
       <r>   39.1213    0.0000 </r>
       <r>   40.0042    0.0000 </r>
       <r>   40.4213    0.0000 </r>
      </set>
      <set comment="kpoint 21">
       <r>  -36.2694    1.0000 </r>
       <r>  -36.0715    1.0000 </r>
       <r>  -35.9695    1.0000 </r>
       <r>  -35.9341    1.0000 </r>
       <r>  -35.7063    1.0000 </r>
       <r>  -35.6302    1.0000 </r>
       <r>    1.2435    1.0000 </r>
       <r>    3.6541    1.0000 </r>
       <r>    3.8937    1.0000 </r>
       <r>    5.7313    1.0000 </r>
       <r>    5.9146    1.0000 </r>
       <r>    7.0799    0.5263 </r>
       <r>    7.3714   -0.0308 </r>
       <r>    7.4176   -0.0204 </r>
       <r>    7.7919   -0.0000 </r>
       <r>    8.5623   -0.0000 </r>
       <r>    9.2662   -0.0000 </r>
       <r>   13.0603    0.0000 </r>
       <r>   19.2341    0.0000 </r>
       <r>   21.1894    0.0000 </r>
       <r>   25.2454    0.0000 </r>
       <r>   25.4639    0.0000 </r>
       <r>   27.6173    0.0000 </r>
       <r>   27.6850    0.0000 </r>
       <r>   29.9571    0.0000 </r>
       <r>   33.4513    0.0000 </r>
       <r>   34.9558    0.0000 </r>
       <r>   36.1296    0.0000 </r>
       <r>   37.1401    0.0000 </r>
       <r>   39.8037    0.0000 </r>
       <r>   39.9143    0.0000 </r>
       <r>   40.6905    0.0000 </r>
      </set>
      <set comment="kpoint 22">
       <r>  -36.2635    1.0000 </r>
       <r>  -36.1295    1.0000 </r>
       <r>  -36.0380    1.0000 </r>
       <r>  -35.8248    1.0000 </r>
       <r>  -35.6542    1.0000 </r>
       <r>  -35.5956    1.0000 </r>
       <r>    0.4976    1.0000 </r>
       <r>    3.3878    1.0000 </r>
       <r>    3.4983    1.0000 </r>
       <r>    5.7858    1.0000 </r>
       <r>    5.9926    1.0000 </r>
       <r>    7.0060    0.8108 </r>
       <r>    7.6583   -0.0002 </r>
       <r>    7.7611   -0.0000 </r>
       <r>    8.3267   -0.0000 </r>
       <r>    8.3459   -0.0000 </r>
       <r>    9.4673   -0.0000 </r>
       <r>   14.8941    0.0000 </r>
       <r>   18.0707    0.0000 </r>
       <r>   19.8991    0.0000 </r>
       <r>   25.0230    0.0000 </r>
       <r>   26.7557    0.0000 </r>
       <r>   26.8812    0.0000 </r>
       <r>   28.6323    0.0000 </r>
       <r>   30.4651    0.0000 </r>
       <r>   33.8552    0.0000 </r>
       <r>   34.9113    0.0000 </r>
       <r>   35.1860    0.0000 </r>
       <r>   37.2664    0.0000 </r>
       <r>   39.7519    0.0000 </r>
       <r>   40.1334    0.0000 </r>
       <r>   40.4256    0.0000 </r>
      </set>
      <set comment="kpoint 23">
       <r>  -36.2419    1.0000 </r>
       <r>  -36.1697    1.0000 </r>
       <r>  -36.0988    1.0000 </r>
       <r>  -35.7285    1.0000 </r>
       <r>  -35.6181    1.0000 </r>
       <r>  -35.5831    1.0000 </r>
       <r>   -0.0497    1.0000 </r>
       <r>    3.1412    1.0000 </r>
       <r>    3.1875    1.0000 </r>
       <r>    5.9146    1.0000 </r>
       <r>    6.0623    1.0000 </r>
       <r>    6.6809    1.0073 </r>
       <r>    7.9958   -0.0000 </r>
       <r>    8.2217   -0.0000 </r>
       <r>    8.2727   -0.0000 </r>
       <r>    8.8453   -0.0000 </r>
       <r>    9.5139   -0.0000 </r>
       <r>   16.4758    0.0000 </r>
       <r>   17.3768    0.0000 </r>
       <r>   18.9111    0.0000 </r>
       <r>   24.8411    0.0000 </r>
       <r>   25.9144    0.0000 </r>
       <r>   28.0258    0.0000 </r>
       <r>   29.1776    0.0000 </r>
       <r>   30.4047    0.0000 </r>
       <r>   32.3191    0.0000 </r>
       <r>   35.9566    0.0000 </r>
       <r>   36.1096    0.0000 </r>
       <r>   37.9490    0.0000 </r>
       <r>   38.4144    0.0000 </r>
       <r>   39.8398    0.0000 </r>
       <r>   40.2168    0.0000 </r>
      </set>
      <set comment="kpoint 24">
       <r>  -36.2219    1.0000 </r>
       <r>  -36.1397    1.0000 </r>
       <r>  -36.1015    1.0000 </r>
       <r>  -35.7428    1.0000 </r>
       <r>  -35.6408    1.0000 </r>
       <r>  -35.6231    1.0000 </r>
       <r>    0.2330    1.0000 </r>
       <r>    3.2954    1.0000 </r>
       <r>    3.3046    1.0000 </r>
       <r>    6.0402    1.0000 </r>
       <r>    6.0999    1.0000 </r>
       <r>    6.6515    1.0044 </r>
       <r>    7.6219   -0.0005 </r>
       <r>    8.2277   -0.0000 </r>
       <r>    8.4300   -0.0000 </r>
       <r>    8.5316   -0.0000 </r>
       <r>    9.2568   -0.0000 </r>
       <r>   14.5348    0.0000 </r>
       <r>   19.4136    0.0000 </r>
       <r>   19.5092    0.0000 </r>
       <r>   24.5508    0.0000 </r>
       <r>   25.9138    0.0000 </r>
       <r>   27.5173    0.0000 </r>
       <r>   29.4676    0.0000 </r>
       <r>   30.1460    0.0000 </r>
       <r>   33.3903    0.0000 </r>
       <r>   33.4720    0.0000 </r>
       <r>   36.5997    0.0000 </r>
       <r>   37.6706    0.0000 </r>
       <r>   39.7144    0.0000 </r>
       <r>   40.2203    0.0000 </r>
       <r>   40.5755    0.0000 </r>
      </set>
      <set comment="kpoint 25">
       <r>  -36.2637    1.0000 </r>
       <r>  -36.1296    1.0000 </r>
       <r>  -36.0378    1.0000 </r>
       <r>  -35.8249    1.0000 </r>
       <r>  -35.6541    1.0000 </r>
       <r>  -35.5955    1.0000 </r>
       <r>    0.4974    1.0000 </r>
       <r>    3.3875    1.0000 </r>
       <r>    3.4984    1.0000 </r>
       <r>    5.7850    1.0000 </r>
       <r>    5.9918    1.0000 </r>
       <r>    7.0069    0.8079 </r>
       <r>    7.6577   -0.0002 </r>
       <r>    7.7617   -0.0000 </r>
       <r>    8.3270   -0.0000 </r>
       <r>    8.3463   -0.0000 </r>
       <r>    9.4680   -0.0000 </r>
       <r>   14.8945    0.0000 </r>
       <r>   18.0718    0.0000 </r>
       <r>   19.8990    0.0000 </r>
       <r>   25.0223    0.0000 </r>
       <r>   26.7531    0.0000 </r>
       <r>   26.8805    0.0000 </r>
       <r>   28.6322    0.0000 </r>
       <r>   30.4672    0.0000 </r>
       <r>   33.8537    0.0000 </r>
       <r>   34.9100    0.0000 </r>
       <r>   35.1867    0.0000 </r>
       <r>   37.2696    0.0000 </r>
       <r>   39.7530    0.0000 </r>
       <r>   40.1330    0.0000 </r>
       <r>   40.4270    0.0000 </r>
      </set>
      <set comment="kpoint 26">
       <r>  -36.3061    1.0000 </r>
       <r>  -36.0946    1.0000 </r>
       <r>  -35.9652    1.0000 </r>
       <r>  -35.9326    1.0000 </r>
       <r>  -35.6843    1.0000 </r>
       <r>  -35.5845    1.0000 </r>
       <r>    0.9906    1.0000 </r>
       <r>    3.5291    1.0000 </r>
       <r>    3.8545    1.0000 </r>
       <r>    5.5465    1.0000 </r>
       <r>    5.8791    1.0000 </r>
       <r>    7.0424    0.6801 </r>
       <r>    7.4312   -0.0175 </r>
[...]
        <r>  0.0071  0.0967  0.0005  0.0009  0.2027  0.1014  0.0001  0.0006  0.0000 </r>
       </set>
       <set comment="band 12">
        <r>  0.0000  0.0000  0.0646  0.0323  0.0036  0.0073  0.2031  0.0338  0.0677 </r>
        <r>  0.0000  0.0000  0.0646  0.0323  0.0036  0.0073  0.2031  0.0338  0.0677 </r>
       </set>
       <set comment="band 13">
        <r>  0.0003  0.0001  0.0002  0.0003  0.0026  0.0013  0.0137  0.1998  0.2694 </r>
        <r>  0.0003  0.0001  0.0002  0.0003  0.0026  0.0013  0.0137  0.1998  0.2694 </r>
       </set>
       <set comment="band 14">
        <r>  0.0002  0.0000  0.0001  0.0002  0.0009  0.0004  0.0120  0.4059  0.0679 </r>
        <r>  0.0002  0.0000  0.0001  0.0002  0.0009  0.0004  0.0120  0.4059  0.0679 </r>
       </set>
       <set comment="band 15">
        <r>  0.0000  0.0000  0.0000  0.0000  0.1615  0.3231  0.0027  0.0004  0.0009 </r>
        <r>  0.0000  0.0000  0.0000  0.0000  0.1615  0.3231  0.0027  0.0004  0.0009 </r>
       </set>
       <set comment="band 16">
        <r>  0.0000  0.0000  0.0003  0.0001  0.1580  0.3159  0.0095  0.0016  0.0032 </r>
        <r>  0.0000  0.0000  0.0003  0.0001  0.1580  0.3159  0.0095  0.0016  0.0032 </r>
       </set>
       <set comment="band 17">
        <r>  0.0216  0.1297  0.0060  0.0119  0.1430  0.0715  0.0149  0.0059  0.0246 </r>
        <r>  0.0216  0.1297  0.0060  0.0119  0.1430  0.0715  0.0149  0.0059  0.0246 </r>
       </set>
       <set comment="band 18">
        <r>  0.0000  0.0000  0.1191  0.0595  0.0018  0.0036  0.1595  0.0266  0.0532 </r>
        <r>  0.0000  0.0000  0.1191  0.0595  0.0018  0.0036  0.1595  0.0266  0.0532 </r>
       </set>
       <set comment="band 19">
        <r>  0.0659  0.0158  0.0372  0.0744  0.0062  0.0031  0.0694  0.1074  0.0504 </r>
        <r>  0.0659  0.0158  0.0372  0.0744  0.0062  0.0031  0.0694  0.1074  0.0504 </r>
       </set>
       <set comment="band 20">
        <r>  0.0634  0.0460  0.0294  0.0589  0.0229  0.0114  0.0590  0.0091  0.1248 </r>
        <r>  0.0634  0.0460  0.0294  0.0589  0.0229  0.0114  0.0590  0.0091  0.1248 </r>
       </set>
       <set comment="band 21">
        <r>  0.1258  0.0976  0.0028  0.0056  0.1130  0.0565  0.0007  0.0000  0.0025 </r>
        <r>  0.1258  0.0976  0.0028  0.0056  0.1130  0.0565  0.0007  0.0000  0.0025 </r>
       </set>
       <set comment="band 22">
        <r>  0.0000  0.0000  0.1190  0.0595  0.0009  0.0018  0.1525  0.0254  0.0508 </r>
        <r>  0.0000  0.0000  0.1190  0.0595  0.0009  0.0018  0.1525  0.0254  0.0508 </r>
       </set>
       <set comment="band 23">
        <r>  0.2692  0.0055  0.0334  0.0668  0.0011  0.0005  0.0050  0.0001  0.0131 </r>
        <r>  0.2692  0.0055  0.0334  0.0668  0.0011  0.0005  0.0050  0.0001  0.0131 </r>
       </set>
       <set comment="band 24">
        <r>  0.1670  0.0692  0.0291  0.0581  0.0355  0.0178  0.0078  0.0111  0.0062 </r>
        <r>  0.1670  0.0692  0.0291  0.0581  0.0355  0.0178  0.0078  0.0111  0.0062 </r>
       </set>
       <set comment="band 25">
        <r>  0.0065  0.0021  0.0030  0.0060  0.0869  0.0435  0.0047  0.0114  0.0376 </r>
        <r>  0.0065  0.0021  0.0030  0.0060  0.0869  0.0435  0.0047  0.0114  0.0376 </r>
       </set>
       <set comment="band 26">
        <r>  0.0000  0.0000  0.0006  0.0003  0.0008  0.0017  0.0862  0.0144  0.0287 </r>
        <r>  0.0000  0.0000  0.0006  0.0003  0.0008  0.0017  0.0862  0.0144  0.0287 </r>
       </set>
       <set comment="band 27">
        <r>  4.3204  0.0002  0.0005  0.0011  0.0000  0.0000  0.0000  0.0002  0.0004 </r>
        <r>  4.3203  0.0002  0.0005  0.0011  0.0000  0.0000  0.0000  0.0002  0.0004 </r>
       </set>
       <set comment="band 28">
        <r>  4.3381  0.0003  0.0003  0.0006  0.0001  0.0000  0.0001  0.0002  0.0001 </r>
        <r>  4.3382  0.0003  0.0003  0.0006  0.0001  0.0000  0.0001  0.0002  0.0001 </r>
       </set>
       <set comment="band 29">
        <r>  0.0000  0.0000  0.0206  0.0103  0.0235  0.0470  0.0505  0.0084  0.0168 </r>
        <r>  0.0000  0.0000  0.0206  0.0103  0.0235  0.0470  0.0505  0.0084  0.0168 </r>
       </set>
       <set comment="band 30">
        <r>  0.0001  0.0321  0.0015  0.0030  0.0693  0.0346  0.0223  0.0698  0.0051 </r>
        <r>  0.0001  0.0321  0.0015  0.0030  0.0693  0.0346  0.0223  0.0698  0.0051 </r>
       </set>
       <set comment="band 31">
        <r>  0.0000  0.0000  0.0000  0.0000  0.0068  0.0135  0.1004  0.0167  0.0335 </r>
        <r>  0.0000  0.0000  0.0000  0.0000  0.0068  0.0135  0.1004  0.0167  0.0335 </r>
       </set>
       <set comment="band 32">
        <r>  0.0478  0.0103  0.0197  0.0393  0.0024  0.0012  0.0317  0.2455  0.0018 </r>
        <r>  0.0478  0.0103  0.0197  0.0393  0.0024  0.0012  0.0317  0.2455  0.0018 </r>
       </set>
      </set>
      <set comment="kpoint 181">
       <set comment="band 1">
        <r>  0.0000  0.0000  0.4942  0.0000  0.0000  0.0000  0.0005  0.0000  0.0000 </r>
        <r>  0.0000  0.0000  0.4942  0.0000  0.0000  0.0000  0.0005  0.0000  0.0000 </r>
       </set>
       <set comment="band 2">
        <r>  0.0000  0.3706  0.0000  0.1241  0.0003  0.0001  0.0000  0.0000  0.0001 </r>
        <r>  0.0000  0.3706  0.0000  0.1241  0.0003  0.0001  0.0000  0.0000  0.0001 </r>
       </set>
       <set comment="band 3">
        <r>  0.0000  0.1241  0.0000  0.3706  0.0001  0.0000  0.0000  0.0001  0.0003 </r>
        <r>  0.0000  0.1241  0.0000  0.3706  0.0001  0.0000  0.0000  0.0001  0.0003 </r>
       </set>
       <set comment="band 4">
        <r>  0.0000  0.3708  0.0000  0.1249  0.0002  0.0001  0.0000  0.0000  0.0001 </r>
        <r>  0.0000  0.3708  0.0000  0.1249  0.0002  0.0001  0.0000  0.0000  0.0001 </r>
       </set>
       <set comment="band 5">
        <r>  0.0000  0.1249  0.0000  0.3708  0.0001  0.0000  0.0000  0.0001  0.0002 </r>
        <r>  0.0000  0.1249  0.0000  0.3708  0.0001  0.0000  0.0000  0.0001  0.0002 </r>
       </set>
       <set comment="band 6">
        <r>  0.0000  0.0000  0.4962  0.0000  0.0000  0.0000  0.0005  0.0000  0.0000 </r>
        <r>  0.0000  0.0000  0.4962  0.0000  0.0000  0.0000  0.0005  0.0000  0.0000 </r>
       </set>
       <set comment="band 7">
        <r>  0.0044  0.0000  0.0453  0.0000  0.0000  0.0000  0.3863  0.0000  0.0000 </r>
        <r>  0.0044  0.0000  0.0453  0.0000  0.0000  0.0000  0.3863  0.0000  0.0000 </r>
       </set>
       <set comment="band 8">
        <r>  0.0000  0.0137  0.0000  0.0414  0.0524  0.0413  0.0000  0.1250  0.1585 </r>
        <r>  0.0000  0.0137  0.0000  0.0414  0.0524  0.0413  0.0000  0.1250  0.1585 </r>
       </set>
       <set comment="band 9">
        <r>  0.0000  0.0414  0.0000  0.0137  0.1585  0.1251  0.0000  0.0413  0.0524 </r>
        <r>  0.0000  0.0414  0.0000  0.0137  0.1585  0.1251  0.0000  0.0413  0.0524 </r>
       </set>
       <set comment="band 10">
        <r>  0.0000  0.0186  0.0000  0.0562  0.0686  0.0180  0.0000  0.0544  0.2068 </r>
        <r>  0.0000  0.0186  0.0000  0.0562  0.0686  0.0180  0.0000  0.0544  0.2068 </r>
       </set>
       <set comment="band 11">
        <r>  0.0000  0.0562  0.0000  0.0186  0.2068  0.0544  0.0000  0.0181  0.0686 </r>
        <r>  0.0000  0.0562  0.0000  0.0186  0.2068  0.0544  0.0000  0.0181  0.0686 </r>
       </set>
       <set comment="band 12">
        <r>  0.0065  0.0000  0.0844  0.0000  0.0000  0.0000  0.3254  0.0000  0.0000 </r>
        <r>  0.0065  0.0000  0.0844  0.0000  0.0000  0.0000  0.3254  0.0000  0.0000 </r>
       </set>
       <set comment="band 13">
        <r>  0.0000  0.0001  0.0000  0.0000  0.0791  0.2943  0.0000  0.0908  0.0244 </r>
        <r>  0.0000  0.0001  0.0000  0.0000  0.0791  0.2943  0.0000  0.0908  0.0244 </r>
       </set>
       <set comment="band 14">
        <r>  0.0000  0.0000  0.0000  0.0001  0.0244  0.0909  0.0000  0.2943  0.0791 </r>
        <r>  0.0000  0.0000  0.0000  0.0001  0.0244  0.0909  0.0000  0.2943  0.0791 </r>
       </set>
       <set comment="band 15">
        <r>  0.0000  0.0000  0.0000  0.0000  0.1653  0.2087  0.0000  0.0641  0.0507 </r>
        <r>  0.0000  0.0000  0.0000  0.0000  0.1653  0.2087  0.0000  0.0641  0.0507 </r>
       </set>
       <set comment="band 16">
        <r>  0.0000  0.0000  0.0000  0.0000  0.0507  0.0641  0.0000  0.2087  0.1653 </r>
        <r>  0.0000  0.0000  0.0000  0.0000  0.0507  0.0641  0.0000  0.2087  0.1653 </r>
       </set>
       <set comment="band 17">
        <r>  0.0202  0.0000  0.1598  0.0000  0.0000  0.0000  0.2456  0.0000  0.0000 </r>
        <r>  0.0202  0.0000  0.1598  0.0000  0.0000  0.0000  0.2456  0.0000  0.0000 </r>
       </set>
       <set comment="band 18">
        <r>  0.0000  0.0461  0.0000  0.1379  0.0469  0.0130  0.0000  0.0389  0.1402 </r>
        <r>  0.0000  0.0461  0.0000  0.1379  0.0469  0.0130  0.0000  0.0389  0.1402 </r>
       </set>
       <set comment="band 19">
        <r>  0.0000  0.1379  0.0000  0.0461  0.1402  0.0389  0.0000  0.0130  0.0469 </r>
        <r>  0.0000  0.1379  0.0000  0.0461  0.1402  0.0389  0.0000  0.0130  0.0469 </r>
       </set>
       <set comment="band 20">
        <r>  0.0000  0.0460  0.0000  0.1377  0.0328  0.0265  0.0000  0.0792  0.0979 </r>
        <r>  0.0000  0.0460  0.0000  0.1377  0.0328  0.0265  0.0000  0.0792  0.0979 </r>
       </set>
       <set comment="band 21">
        <r>  0.0000  0.1377  0.0000  0.0460  0.0979  0.0792  0.0000  0.0265  0.0327 </r>
        <r>  0.0000  0.1377  0.0000  0.0460  0.0979  0.0792  0.0000  0.0265  0.0327 </r>
       </set>
       <set comment="band 22">
        <r>  0.1136  0.0000  0.1048  0.0000  0.0000  0.0000  0.1949  0.0000  0.0000 </r>
        <r>  0.1136  0.0000  0.1048  0.0000  0.0000  0.0000  0.1949  0.0000  0.0000 </r>
       </set>
       <set comment="band 23">
        <r>  0.3552  0.0000  0.0291  0.0000  0.0000  0.0000  0.0016  0.0000  0.0000 </r>
        <r>  0.3552  0.0000  0.0291  0.0000  0.0000  0.0000  0.0016  0.0000  0.0000 </r>
       </set>
       <set comment="band 24">
        <r>  0.2635  0.0000  0.0845  0.0000  0.0000  0.0000  0.0449  0.0000  0.0000 </r>
        <r>  0.2635  0.0000  0.0845  0.0000  0.0000  0.0000  0.0449  0.0000  0.0000 </r>
       </set>
       <set comment="band 25">
        <r>  4.3896  0.0000  0.0004  0.0000  0.0000  0.0000  0.0001  0.0000  0.0000 </r>
        <r>  4.3319  0.0000  0.0004  0.0000  0.0000  0.0000  0.0001  0.0000  0.0000 </r>
       </set>
       <set comment="band 26">
        <r>  4.3319  0.0000  0.0004  0.0000  0.0000  0.0000  0.0000  0.0000  0.0000 </r>
        <r>  4.3896  0.0000  0.0004  0.0000  0.0000  0.0000  0.0000  0.0000  0.0000 </r>
       </set>
       <set comment="band 27">
        <r>  0.0000  0.0000  0.0000  0.0000  0.0000  0.0000  0.0000  0.0000  0.0000 </r>
        <r>  0.0000  0.0000  0.0000  0.0000  0.0000  0.0000  0.0000  0.0000  0.0000 </r>
       </set>
       <set comment="band 28">
        <r>  0.0000  0.0119  0.0000  0.0016  0.0139  0.0783  0.0000  0.0105  0.0019 </r>
        <r>  0.0000  0.0119  0.0000  0.0016  0.0139  0.0783  0.0000  0.0105  0.0019 </r>
       </set>
       <set comment="band 29">
        <r>  0.0000  0.0016  0.0000  0.0119  0.0019  0.0104  0.0000  0.0779  0.0139 </r>
        <r>  0.0000  0.0016  0.0000  0.0119  0.0019  0.0104  0.0000  0.0779  0.0139 </r>
       </set>
       <set comment="band 30">
        <r>  0.0000  0.0079  0.0000  0.0027  0.1168  0.0331  0.0000  0.0114  0.0401 </r>
        <r>  0.0000  0.0079  0.0000  0.0027  0.1168  0.0331  0.0000  0.0114  0.0401 </r>
       </set>
       <set comment="band 31">
        <r>  0.0000  0.0027  0.0000  0.0078  0.0400  0.0114  0.0000  0.0333  0.1164 </r>
        <r>  0.0000  0.0027  0.0000  0.0078  0.0400  0.0114  0.0000  0.0333  0.1164 </r>
       </set>
       <set comment="band 32">
        <r>  0.0100  0.0000  0.0567  0.0000  0.0000  0.0000  0.1393  0.0000  0.0000 </r>
        <r>  0.0101  0.0000  0.0567  0.0000  0.0000  0.0000  0.1393  0.0000  0.0000 </r>
       </set>
      </set>
      <set comment="kpoint 182">
       <set comment="band 1">
        <r>  0.0000  0.3295  0.0549  0.1098  0.0002  0.0001  0.0001  0.0000  0.0001 </r>
        <r>  0.0000  0.3295  0.0549  0.1098  0.0002  0.0001  0.0001  0.0000  0.0001 </r>
       </set>
       <set comment="band 2">
        <r>  0.0000  0.0106  0.2225  0.2616  0.0000  0.0000  0.0002  0.0001  0.0002 </r>
        <r>  0.0000  0.0106  0.2225  0.2616  0.0000  0.0000  0.0002  0.0001  0.0002 </r>
       </set>
       <set comment="band 3">
        <r>  0.0000  0.1543  0.2172  0.1231  0.0001  0.0001  0.0002  0.0001  0.0001 </r>
        <r>  0.0000  0.1543  0.2172  0.1231  0.0001  0.0001  0.0002  0.0001  0.0001 </r>
       </set>
       <set comment="band 4">
        <r>  0.0000  0.0096  0.2285  0.2577  0.0000  0.0000  0.0002  0.0001  0.0002 </r>
        <r>  0.0000  0.0096  0.2285  0.2577  0.0000  0.0000  0.0002  0.0001  0.0002 </r>
       </set>
       <set comment="band 5">
        <r>  0.0000  0.1556  0.2122  0.1279  0.0001  0.0001  0.0002  0.0000  0.0001 </r>
        <r>  0.0000  0.1556  0.2122  0.1279  0.0001  0.0001  0.0002  0.0000  0.0001 </r>
       </set>
       <set comment="band 6">
        <r>  0.0000  0.3308  0.0551  0.1103  0.0002  0.0001  0.0001  0.0000  0.0001 </r>
        <r>  0.0000  0.3308  0.0551  0.1103  0.0002  0.0001  0.0001  0.0000  0.0001 </r>
       </set>
       <set comment="band 7">
        <r>  0.0044  0.0302  0.0050  0.0101  0.1717  0.0859  0.0429  0.0286  0.0572 </r>
        <r>  0.0044  0.0302  0.0050  0.0101  0.1717  0.0859  0.0429  0.0286  0.0572 </r>
       </set>
       <set comment="band 8">
        <r>  0.0000  0.0147  0.0002  0.0402  0.0756  0.0247  0.0012  0.0632  0.2125 </r>
        <r>  0.0000  0.0147  0.0002  0.0402  0.0756  0.0247  0.0012  0.0632  0.2125 </r>
       </set>
       <set comment="band 9">
        <r>  0.0000  0.0037  0.0488  0.0026  0.0087  0.0198  0.3300  0.0104  0.0084 </r>
        <r>  0.0000  0.0037  0.0488  0.0026  0.0087  0.0198  0.3300  0.0104  0.0084 </r>
       </set>
       <set comment="band 10">
        <r>  0.0000  0.0248  0.0123  0.0377  0.0732  0.0398  0.0560  0.0943  0.0846 </r>
        <r>  0.0000  0.0248  0.0123  0.0377  0.0732  0.0398  0.0560  0.0943  0.0846 </r>
       </set>
       <set comment="band 11">
        <r>  0.0000  0.0002  0.0542  0.0204  0.0049  0.0027  0.2471  0.0292  0.0640 </r>
        <r>  0.0000  0.0002  0.0542  0.0204  0.0049  0.0027  0.2471  0.0292  0.0640 </r>
       </set>
       <set comment="band 12">
        <r>  0.0065  0.0563  0.0094  0.0188  0.1446  0.0723  0.0362  0.0241  0.0482 </r>
        <r>  0.0065  0.0563  0.0094  0.0188  0.1446  0.0723  0.0362  0.0241  0.0482 </r>
       </set>
       <set comment="band 13">
        <r>  0.0000  0.0000  0.0000  0.0000  0.1622  0.3155  0.0045  0.0012  0.0054 </r>
        <r>  0.0000  0.0000  0.0000  0.0000  0.1622  0.3155  0.0045  0.0012  0.0054 </r>
       </set>
       <set comment="band 14">
        <r>  0.0000  0.0000  0.0000  0.0000  0.0000  0.0070  0.0009  0.3562  0.1246 </r>
        <r>  0.0000  0.0000  0.0000  0.0000  0.0000  0.0070  0.0009  0.3562  0.1246 </r>
       </set>
       <set comment="band 15">
        <r>  0.0000  0.0000  0.0001  0.0000  0.1607  0.3184  0.0059  0.0003  0.0034 </r>
        <r>  0.0000  0.0000  0.0001  0.0000  0.1607  0.3184  0.0059  0.0003  0.0034 </r>
       </set>
       <set comment="band 16">
        <r>  0.0000  0.0000  0.0000  0.0001  0.0011  0.0023  0.0022  0.2802  0.2028 </r>
        <r>  0.0000  0.0000  0.0000  0.0001  0.0011  0.0023  0.0022  0.2802  0.2028 </r>
       </set>
       <set comment="band 17">
        <r>  0.0202  0.1066  0.0178  0.0355  0.1092  0.0546  0.0273  0.0182  0.0364 </r>
        <r>  0.0202  0.1066  0.0178  0.0355  0.1092  0.0546  0.0273  0.0182  0.0364 </r>
       </set>
       <set comment="band 18">
        <r>  0.0000  0.0208  0.1619  0.0012  0.0266  0.0027  0.2068  0.0001  0.0028 </r>
        <r>  0.0000  0.0208  0.1619  0.0012  0.0266  0.0027  0.2068  0.0001  0.0028 </r>
       </set>
       <set comment="band 19">
        <r>  0.0000  0.0405  0.0016  0.1419  0.0270  0.0261  0.0020  0.0829  0.1009 </r>
        <r>  0.0000  0.0405  0.0016  0.1419  0.0270  0.0261  0.0020  0.0829  0.1009 </r>
       </set>
       <set comment="band 20">
        <r>  0.0000  0.0146  0.1633  0.0059  0.0068  0.0142  0.2072  0.0052  0.0030 </r>
        <r>  0.0000  0.0146  0.1633  0.0059  0.0068  0.0142  0.2072  0.0052  0.0030 </r>
       </set>
       <set comment="band 21">
        <r>  0.0000  0.0467  0.0000  0.1370  0.0461  0.0139  0.0000  0.0401  0.1362 </r>
        <r>  0.0000  0.0467  0.0000  0.1370  0.0461  0.0139  0.0000  0.0401  0.1362 </r>
       </set>
       <set comment="band 22">
        <r>  0.1140  0.0698  0.0116  0.0233  0.0865  0.0433  0.0216  0.0144  0.0288 </r>
        <r>  0.1140  0.0698  0.0116  0.0233  0.0865  0.0433  0.0216  0.0144  0.0288 </r>
       </set>
       <set comment="band 23">
        <r>  0.3553  0.0194  0.0032  0.0065  0.0007  0.0004  0.0002  0.0001  0.0002 </r>
        <r>  0.3553  0.0194  0.0032  0.0065  0.0007  0.0004  0.0002  0.0001  0.0002 </r>
       </set>
       <set comment="band 24">
        <r>  0.2631  0.0565  0.0094  0.0188  0.0201  0.0100  0.0050  0.0033  0.0067 </r>
        <r>  0.2631  0.0565  0.0094  0.0188  0.0201  0.0100  0.0050  0.0033  0.0067 </r>
       </set>
       <set comment="band 25">
        <r>  4.3726  0.0003  0.0000  0.0001  0.0000  0.0000  0.0000  0.0000  0.0000 </r>
        <r>  4.3486  0.0003  0.0000  0.0001  0.0000  0.0000  0.0000  0.0000  0.0000 </r>
       </set>
       <set comment="band 26">
        <r>  4.3489  0.0003  0.0000  0.0001  0.0000  0.0000  0.0000  0.0000  0.0000 </r>
        <r>  4.3728  0.0003  0.0000  0.0001  0.0000  0.0000  0.0000  0.0000  0.0000 </r>
       </set>
       <set comment="band 27">
        <r>  0.0000  0.0000  0.0000  0.0000  0.0000  0.0000  0.0000  0.0000  0.0000 </r>
        <r>  0.0000  0.0000  0.0000  0.0000  0.0000  0.0000  0.0000  0.0000  0.0000 </r>
       </set>
       <set comment="band 28">
        <r>  0.0000  0.0011  0.0029  0.0093  0.0224  0.0054  0.0164  0.0039  0.0557 </r>
        <r>  0.0000  0.0011  0.0029  0.0093  0.0224  0.0054  0.0164  0.0039  0.0557 </r>
       </set>
       <set comment="band 29">
        <r>  0.0000  0.0033  0.0090  0.0011  0.0039  0.0221  0.0502  0.0056  0.0220 </r>
        <r>  0.0000  0.0033  0.0090  0.0011  0.0039  0.0221  0.0502  0.0056  0.0220 </r>
       </set>
       <set comment="band 30">
        <r>  0.0000  0.0000  0.0071  0.0035  0.0014  0.0021  0.1327  0.0217  0.0434 </r>
        <r>  0.0000  0.0000  0.0071  0.0035  0.0014  0.0021  0.1327  0.0217  0.0434 </r>
       </set>
       <set comment="band 31">
        <r>  0.0000  0.0035  0.0023  0.0048  0.0437  0.0220  0.0434  0.0474  0.0447 </r>
        <r>  0.0000  0.0035  0.0023  0.0048  0.0437  0.0220  0.0433  0.0474  0.0447 </r>
       </set>
       <set comment="band 32">
        <r>  0.0100  0.0378  0.0063  0.0126  0.0620  0.0310  0.0155  0.0103  0.0207 </r>
        <r>  0.0100  0.0378  0.0063  0.0126  0.0620  0.0310  0.0155  0.0103  0.0207 </r>
       </set>
      </set>
     </set>
    </set>
   </array>
  </projected>
 </calculation>
 <structure name="finalpos" >
  <crystal>
   <varray name="basis" >
    <v>      -1.16444843       2.01688462       1.64702538 </v>
    <v>      -1.16468088      -2.01688461       1.64686124 </v>
    <v>       2.32901406       0.00020062       1.64686223 </v>
   </varray>
   <i name="volume">     23.20882228 </i>
   <varray name="rec_basis" >
    <v>      -0.14312926       0.24790710       0.20238506 </v>
    <v>      -0.14310078      -0.24790708       0.20240520 </v>
    <v>       0.28624413      -0.00002473       0.20240515 </v>
   </varray>
  </crystal>
  <varray name="positions" >
   <v>       0.50000000       0.50000000       0.50000000 </v>
   <v>       0.00000000       0.00000000       0.00000000 </v>
  </varray>
 </structure>
</modeling>
