<?xml version="1.0" encoding="ISO-8859-1"?>
<modeling>
 <generator>
  <i name="program" type="string">vasp </i>
  <i name="version" type="string">6.4.3  </i>
  <i name="subversion" type="string">19Mar24 (build Oct 16 2024 18:29:25) complex                          parallel </i>
  <i name="platform" type="string">LinuxIFC </i>
  <i name="date" type="string">2025 08 12 </i>
  <i name="time" type="string">17:05:32 </i>
 </generator>
 <incar>
  <i type="string" name="PREC">Accurate</i>
  <i type="string" name="ALGO">Fast</i>
  <i type="int" name="ISPIN">     2</i>
  <i type="int" name="NELM">   100</i>
  <i type="int" name="IBRION">     2</i>
  <i name="EDIFF">      0.00050000</i>
  <i type="int" name="NSW">    99</i>
  <i type="int" name="ISIF">     3</i>
  <i name="ENCUT">    520.00000000</i>
  <v name="MAGMOM">      0.60000000      0.60000000      0.60000000      0.60000000      0.60000000      0.60000000      0.60000000      0.60000000      0.60000000      0.60000000</v>
  <i type="string" name="LREAL">Auto</i>
  <i type="int" name="ISMEAR">    -5</i>
  <i name="SIGMA">      0.05000000</i>
  <i type="logical" name="LWAVE"> F  </i>
  <i type="int" name="LORBIT">    11</i>
  <i type="logical" name="LASPH"> T  </i>
 </incar>
 <primitive_cell>
  <structure name="primitive_cell" >
   <crystal>
    <varray name="basis" >
     <v>       2.77016400      -4.86436700       0.00000000 </v>
     <v>       2.77016400       4.86436700       0.00000000 </v>
     <v>       0.00000000       0.00000000       4.96874100 </v>
    </varray>
    <i name="volume">    133.90850751 </i>
    <varray name="rec_basis" >
     <v>       0.18049473      -0.10278830       0.00000000 </v>
     <v>       0.18049473       0.10278830       0.00000000 </v>
     <v>       0.00000000       0.00000000       0.20125823 </v>
    </varray>
   </crystal>
   <varray name="positions" >
    <v>       0.00459800       0.67063400       0.93113900 </v>
    <v>       0.67063400       0.00459800       0.93113900 </v>
    <v>       0.32936600       0.99540200       0.43113900 </v>
    <v>       0.99540200       0.32936600       0.43113900 </v>
    <v>       0.22843100       0.22843100       0.49432000 </v>
    <v>       0.09775700       0.66036400       0.58557100 </v>
    <v>       0.66036400       0.09775700       0.58557100 </v>
    <v>       0.33963600       0.90224300       0.08557100 </v>
    <v>       0.90224300       0.33963600       0.08557100 </v>
    <v>       0.77156900       0.77156900       0.99432000 </v>
   </varray>
  </structure>
  <varray name="primitive_index" >
   <v type="int" >        1 </v>
   <v type="int" >        2 </v>
   <v type="int" >        3 </v>
   <v type="int" >        4 </v>
   <v type="int" >        5 </v>
   <v type="int" >        6 </v>
   <v type="int" >        7 </v>
   <v type="int" >        8 </v>
   <v type="int" >        9 </v>
   <v type="int" >       10 </v>
  </varray>
 </primitive_cell>
 <kpoints>
  <generation param="Gamma">
   <v type="int" name="divisions">       4        4        5 </v>
   <v name="usershift">      0.00000000       0.00000000       0.00000000 </v>
   <v name="genvec1">      0.25000000       0.00000000       0.00000000 </v>
   <v name="genvec2">      0.00000000       0.25000000       0.00000000 </v>
   <v name="genvec3">      0.00000000       0.00000000       0.20000000 </v>
   <v name="shift">      0.00000000       0.00000000       0.00000000 </v>
  </generation>
  <varray name="kpointlist" >
   <v>       0.00000000       0.00000000       0.00000000 </v>
   <v>       0.25000000       0.00000000       0.00000000 </v>
   <v>       0.50000000       0.00000000       0.00000000 </v>
   <v>       0.25000000       0.25000000       0.00000000 </v>
   <v>       0.50000000       0.25000000       0.00000000 </v>
   <v>      -0.25000000       0.25000000       0.00000000 </v>
   <v>       0.50000000       0.50000000       0.00000000 </v>
   <v>       0.00000000       0.00000000       0.20000000 </v>
   <v>       0.25000000       0.00000000       0.20000000 </v>
   <v>       0.50000000       0.00000000       0.20000000 </v>
   <v>       0.25000000       0.25000000       0.20000000 </v>
   <v>       0.50000000       0.25000000       0.20000000 </v>
   <v>      -0.25000000       0.25000000       0.20000000 </v>
   <v>       0.50000000       0.50000000       0.20000000 </v>
   <v>       0.00000000       0.00000000       0.40000000 </v>
   <v>       0.25000000       0.00000000       0.40000000 </v>
   <v>       0.50000000       0.00000000       0.40000000 </v>
   <v>       0.25000000       0.25000000       0.40000000 </v>
   <v>       0.50000000       0.25000000       0.40000000 </v>
   <v>      -0.25000000       0.25000000       0.40000000 </v>
   <v>       0.50000000       0.50000000       0.40000000 </v>
  </varray>
  <varray name="weights" >
   <v>       0.01250000 </v>
   <v>       0.05000000 </v>
   <v>       0.02500000 </v>
   <v>       0.02500000 </v>
   <v>       0.05000000 </v>
   <v>       0.02500000 </v>
   <v>       0.01250000 </v>
   <v>       0.02500000 </v>
   <v>       0.10000000 </v>
   <v>       0.05000000 </v>
   <v>       0.05000000 </v>
   <v>       0.10000000 </v>
   <v>       0.05000000 </v>
   <v>       0.02500000 </v>
   <v>       0.02500000 </v>
   <v>       0.10000000 </v>
   <v>       0.05000000 </v>
   <v>       0.05000000 </v>
   <v>       0.10000000 </v>
   <v>       0.05000000 </v>
   <v>       0.02500000 </v>
  </varray>
  <varray name="tetrahedronlist"  type="int" >
   <v type="int" >        4        9       12       13       16 </v>
   <v type="int" >        4        9       10       12       16 </v>
   <v type="int" >        4       10       12       16       17 </v>
   <v type="int" >        4       12       13       16       20 </v>
   <v type="int" >        4       12       16       19       20 </v>
   <v type="int" >        4       12       16       17       19 </v>
   <v type="int" >        4       10       11       12       17 </v>
   <v type="int" >        4        9       10       11       17 </v>
   <v type="int" >        4        9       11       16       17 </v>
   <v type="int" >        4       11       12       17       19 </v>
   <v type="int" >        4       11       17       18       19 </v>
   <v type="int" >        4       11       16       17       18 </v>
   <v type="int" >        4        9        9       11       16 </v>
   <v type="int" >        4        8        9        9       16 </v>
   <v type="int" >        4        8        9       15       16 </v>
   <v type="int" >        4        9       11       16       18 </v>
   <v type="int" >        4        9       16       16       18 </v>
   <v type="int" >        4        9       15       16       16 </v>
   <v type="int" >        4        8        9       13       15 </v>
   <v type="int" >        4        9       13       15       16 </v>
   <v type="int" >        4       13       15       16       20 </v>
   <v type="int" >        4       19       20       20       21 </v>
   <v type="int" >        4       19       19       20       21 </v>
   <v type="int" >        4       19       20       21       21 </v>
   <v type="int" >        4       19       19       19       21 </v>
   <v type="int" >        4       18       19       19       19 </v>
   <v type="int" >        2       18       18       19       19 </v>
   <v type="int" >        2       19       19       21       21 </v>
   <v type="int" >        4       17       18       18       19 </v>
   <v type="int" >        4       16       17       18       18 </v>
   <v type="int" >        4       16       16       17       18 </v>
   <v type="int" >        4       17       18       19       19 </v>
   <v type="int" >        4       17       17       18       19 </v>
   <v type="int" >        4       16       17       17       18 </v>
   <v type="int" >        4       16       16       17       19 </v>
   <v type="int" >        4       16       16       19       20 </v>
   <v type="int" >        4       16       19       20       20 </v>
   <v type="int" >        4       16       17       17       19 </v>
   <v type="int" >        4       16       17       19       19 </v>
   <v type="int" >        4       16       19       19       20 </v>
   <v type="int" >        4       12       18       19       19 </v>
   <v type="int" >        4       12       19       19       21 </v>
   <v type="int" >        4       12       14       19       21 </v>
   <v type="int" >        4       11       12       18       19 </v>
   <v type="int" >        4       11       12       12       19 </v>
   <v type="int" >        4       12       12       14       19 </v>
   <v type="int" >        4       14       19       20       21 </v>
   <v type="int" >        4       12       14       19       20 </v>
   <v type="int" >        4       12       13       14       20 </v>
   <v type="int" >        4       10       16       17       18 </v>
   <v type="int" >        4       10       17       18       19 </v>
   <v type="int" >        4       10       12       18       19 </v>
   <v type="int" >        4        9       10       16       18 </v>
   <v type="int" >        4        9       10       11       18 </v>
   <v type="int" >        4       10       11       12       18 </v>
   <v type="int" >        4        4        9       10       11 </v>
   <v type="int" >        4        4       10       11       12 </v>
   <v type="int" >        4        4        5       10       12 </v>
   <v type="int" >        4        2        4        9       10 </v>
   <v type="int" >        4        2        3        4       10 </v>
   <v type="int" >        4        3        4        5       10 </v>
   <v type="int" >        4        5        9       10       12 </v>
   <v type="int" >        4        5        9       12       13 </v>
   <v type="int" >        4        5        6        9       13 </v>
   <v type="int" >        4        3        5        9       10 </v>
   <v type="int" >        4        2        3        5        9 </v>
   <v type="int" >        4        2        5        6        9 </v>
   <v type="int" >        4        6        8        9       13 </v>
   <v type="int" >        4        2        6        8        9 </v>
   <v type="int" >        4        1        2        6        8 </v>
   <v type="int" >        4        2        8        9        9 </v>
   <v type="int" >        4        2        9        9       11 </v>
   <v type="int" >        4        2        4        9       11 </v>
   <v type="int" >        4        1        2        8        9 </v>
   <v type="int" >        4        1        2        2        9 </v>
   <v type="int" >        4        2        2        4        9 </v>
   <v type="int" >        4        2        9       12       13 </v>
   <v type="int" >        4        2        9       10       12 </v>
   <v type="int" >        4        2        3       10       12 </v>
   <v type="int" >        4        2        6       12       13 </v>
   <v type="int" >        4        2        5        6       12 </v>
   <v type="int" >        4        2        3        5       12 </v>
   <v type="int" >        4        3       10       11       12 </v>
   <v type="int" >        4        3        9       10       11 </v>
   <v type="int" >        4        2        3        9       11 </v>
   <v type="int" >        4        3        5       11       12 </v>
   <v type="int" >        4        3        4        5       11 </v>
   <v type="int" >        4        2        3        4       11 </v>
   <v type="int" >        4        1        8        9       13 </v>
   <v type="int" >        4        1        2        9       13 </v>
   <v type="int" >        4        1        2        6       13 </v>
   <v type="int" >        4        5        6        7       13 </v>
   <v type="int" >        4        5        7       12       13 </v>
   <v type="int" >        4        7       12       13       14 </v>
   <v type="int" >        4        5        5        7       12 </v>
   <v type="int" >        4        4        5        5       12 </v>
   <v type="int" >        4        4        5       11       12 </v>
   <v type="int" >        4        5        7       12       14 </v>
   <v type="int" >        4        5       12       12       14 </v>
   <v type="int" >        4        5       11       12       12 </v>
   <v type="int" >        4       12       13       14       21 </v>
   <v type="int" >        4       12       13       19       21 </v>
   <v type="int" >        4       13       19       20       21 </v>
   <v type="int" >        4        9       12       13       19 </v>
   <v type="int" >        4        9       10       12       19 </v>
   <v type="int" >        4        9       10       17       19 </v>
   <v type="int" >        4        9       13       19       20 </v>
   <v type="int" >        4        9       16       19       20 </v>
   <v type="int" >        4        9       16       17       19 </v>
   <v type="int" >        4       15       16       20       20 </v>
   <v type="int" >        4       15       16       16       20 </v>
   <v type="int" >        4       15       15       16       20 </v>
   <v type="int" >        4       15       16       16       16 </v>
   <v type="int" >        4       16       16       16       18 </v>
   <v type="int" >        2       16       16       18       18 </v>
   <v type="int" >        2       15       15       16       16 </v>
   <v type="int" >        4        8       15       16       20 </v>
   <v type="int" >        4        8        9       16       20 </v>
   <v type="int" >        4        8        9       13       20 </v>
   <v type="int" >        4        6       12       13       14 </v>
   <v type="int" >        4        5        6       12       14 </v>
   <v type="int" >        4        5        6        7       14 </v>
  </varray>
  <i name="volumeweight">      0.00208333 </i>
 </kpoints>
 <parameters>
  <separator name="general" >
   <i type="string" name="SYSTEM">unknown system</i>
   <i type="logical" name="LCOMPAT"> F  </i>
  </separator>
  <separator name="electronic" >
   <i type="string" name="PREC">accura</i>
   <i name="ENMAX">    520.00000000</i>
   <i name="ENAUG">    605.39200000</i>
   <i name="EDIFF">      0.00050000</i>
   <i type="int" name="IALGO">    68</i>
   <i type="int" name="IWAVPR">    11</i>
   <i type="int" name="NBANDS">    64</i>
   <i type="int" name="NBANDSLOW">    -1</i>
   <i type="int" name="NBANDSHIGH">    -1</i>
   <i name="NELECT">     48.00000000</i>
   <i type="int" name="TURBO">     0</i>
   <i type="int" name="IRESTART">     0</i>
   <i type="int" name="NREBOOT">     0</i>
   <i type="int" name="NMIN">     0</i>
   <i name="EREF">      0.00000000</i>
   <separator name="electronic smearing" >
    <i type="int" name="ISMEAR">    -5</i>
    <i name="SIGMA">      0.05000000</i>
    <i name="KSPACING">      0.50000000</i>
    <i type="logical" name="KGAMMA"> T  </i>
    <i type="logical" name="KBLOWUP"> T  </i>
   </separator>
   <separator name="electronic projectors" >
    <i type="logical" name="LREAL"> T  </i>
    <v name="ROPT">     -0.00025000     -0.00025000</v>
    <i type="int" name="LMAXPAW">  -100</i>
    <i type="int" name="LMAXMIX">     2</i>
    <i type="logical" name="NLSPLINE"> F  </i>
   </separator>
   <separator name="electronic startup" >
    <i type="int" name="ISTART">     0</i>
    <i type="int" name="ICHARG">     2</i>
    <i type="int" name="INIWAV">     1</i>
   </separator>
   <separator name="electronic spin" >
    <i type="int" name="ISPIN">     2</i>
    <i type="logical" name="LNONCOLLINEAR"> F  </i>
    <v name="MAGMOM">      0.60000000      0.60000000      0.60000000      0.60000000      0.60000000      0.60000000      0.60000000      0.60000000      0.60000000      0.60000000</v>
    <i name="NUPDOWN">     -1.00000000</i>
    <i type="logical" name="LSORBIT"> F  </i>
    <v name="SAXIS">      0.00000000      0.00000000      1.00000000</v>
    <i type="logical" name="LSPIRAL"> F  </i>
    <v name="QSPIRAL">      0.00000000      0.00000000      0.00000000</v>
    <i type="logical" name="LZEROZ"> F  </i>
   </separator>
   <separator name="electronic exchange-correlation" >
    <i type="logical" name="LASPH"> T  </i>
   </separator>
   <separator name="electronic convergence" >
    <i type="int" name="NELM">   100</i>
    <i type="int" name="NELMDL">    -5</i>
    <i type="int" name="NELMIN">     2</i>
    <i name="ENINI">    520.00000000</i>
    <separator name="electronic convergence detail" >
     <i type="logical" name="LDIAG"> T  </i>
     <i type="logical" name="LSUBROT"> F  </i>
     <i name="WEIMIN">      0.00100000</i>
     <i name="EBREAK">      0.00000195</i>
     <i name="DEPER">      0.30000000</i>
     <i type="int" name="NRMM">     4</i>
     <i name="TIME">      0.40000000</i>
    </separator>
   </separator>
   <separator name="electronic mixer" >
    <i name="AMIX">      0.40000000</i>
    <i name="BMIX">      1.00000000</i>
    <i name="AMIN">      0.10000000</i>
    <i name="AMIX_MAG">      1.60000000</i>
    <i name="BMIX_MAG">      1.00000000</i>
    <separator name="electronic mixer details" >
     <i type="int" name="IMIX">     4</i>
     <i type="logical" name="MIXFIRST"> F  </i>
     <i type="int" name="MAXMIX">   -45</i>
     <i name="WC">    100.00000000</i>
     <i type="int" name="INIMIX">     1</i>
     <i type="int" name="MIXPRE">     1</i>
     <i type="int" name="MREMOVE">     5</i>
    </separator>
   </separator>
   <separator name="electronic dipolcorrection" >
    <i type="logical" name="LDIPOL"> F  </i>
    <i type="logical" name="LMONO"> F  </i>
    <i type="int" name="IDIPOL">     0</i>
    <i name="EPSILON">      1.00000000</i>
    <v name="DIPOL">   -100.00000000   -100.00000000   -100.00000000</v>
    <i name="EFIELD">      0.00000000</i>
    <i type="logical" name="LVACPOTAV"> F  </i>
   </separator>
  </separator>
  <separator name="grids" >
   <i type="int" name="NGX">    42</i>
   <i type="int" name="NGY">    42</i>
   <i type="int" name="NGZ">    40</i>
   <i type="int" name="NGXF">    84</i>
   <i type="int" name="NGYF">    84</i>
   <i type="int" name="NGZF">    80</i>
   <i type="logical" name="ADDGRID"> F  </i>
  </separator>
  <separator name="ionic" >
   <i type="int" name="NSW">    99</i>
   <i type="int" name="IBRION">     2</i>
   <i type="int" name="MDALGO">     0</i>
   <i type="int" name="ISIF">     3</i>
   <i name="PSTRESS">      0.00000000</i>
   <i name="EDIFFG">      0.00500000</i>
   <i type="int" name="NFREE">     1</i>
   <i name="POTIM">      0.50000000</i>
   <i name="SMASS">     -3.00000000</i>
   <i name="SCALEE">      1.00000000</i>
  </separator>
  <separator name="ionic md" >
   <i name="TEBEG">      0.00010000</i>
   <i name="TEEND">      0.00010000</i>
   <i type="int" name="NBLOCK">     1</i>
   <i type="int" name="KBLOCK">    99</i>
   <i type="int" name="NPACO">   256</i>
   <i name="APACO">     10.00000000</i>
  </separator>
  <separator name="symmetry" >
   <i type="int" name="ISYM">     2</i>
   <i name="SYMPREC">      0.00001000</i>
  </separator>
  <separator name="dos" >
   <i type="int" name="LORBIT">    11</i>
   <v name="RWIGS">     -1.00000000     -1.00000000</v>
   <i type="int" name="NEDOS">   301</i>
   <i name="EMIN">     10.00000000</i>
   <i name="EMAX">    -10.00000000</i>
   <i name="EFERMI">      0.00000000</i>
  </separator>
  <separator name="writing" >
   <i type="int" name="NWRITE">     2</i>
   <i type="logical" name="LWAVE"> F  </i>
   <i type="logical" name="LDOWNSAMPLE"> F  </i>
   <i type="logical" name="LCHARG"> T  </i>
   <i type="logical" name="LPARD"> F  </i>
   <i type="logical" name="LVTOT"> F  </i>
   <i type="logical" name="LVHAR"> F  </i>
   <i type="logical" name="LELF"> F  </i>
   <i type="logical" name="LOPTICS"> F  </i>
   <v name="STM">      0.00000000      0.00000000      0.00000000      0.00000000      0.00000000      0.00000000      0.00000000</v>
  </separator>
  <separator name="performance" >
   <i type="int" name="NPAR">    32</i>
   <i type="int" name="NSIM">     4</i>
   <i type="int" name="NBLK">    -1</i>
   <i type="logical" name="LPLANE"> T  </i>
   <i type="logical" name="LSCALAPACK"> T  </i>
   <i type="logical" name="LSCAAWARE"> F  </i>
   <i type="logical" name="LSCALU"> F  </i>
   <i type="logical" name="LASYNC"> F  </i>
   <i type="logical" name="LORBITALREAL"> F  </i>
  </separator>
  <separator name="miscellaneous" >
   <i type="int" name="IDIOT">     3</i>
   <i type="int" name="PHON_NSTRUCT">    -1</i>
   <i type="logical" name="LMUSIC"> F  </i>
   <v name="POMASS">     26.98200000     16.00000000</v>
   <v name="DARWINR">      0.00000000      0.00000000</v>
   <v name="DARWINV">      1.00000000      1.00000000</v>
   <i type="logical" name="LCORR"> T  </i>
  </separator>
  <i type="logical" name="GGA_COMPAT"> T  </i>
  <i type="logical" name="LBERRY"> F  </i>
  <i type="int" name="ICORELEVEL">     0</i>
  <i type="logical" name="LDAU"> F  </i>
  <i type="int" name="I_CONSTRAINED_M">     0</i>
  <separator name="electronic exchange-correlation" >
   <i type="string" name="GGA    ">PE</i>
   <i type="string" name="XC_C">1</i>
   <i type="int" name="VOSKOWN">     0</i>
   <i type="logical" name="LHFCALC"> F  </i>
   <i type="string" name="PRECFOCK"></i>
   <i type="logical" name="LSYMGRAD"> F  </i>
   <i type="logical" name="LHFONE"> F  </i>
   <i type="logical" name="LRHFCALC"> F  </i>
   <i type="logical" name="LTHOMAS"> F  </i>
   <i type="logical" name="LMODELHF"> F  </i>
   <i type="logical" name="LFOCKACE"> F  </i>
   <i name="ENCUT4O">     -1.00000000</i>
   <i type="int" name="EXXOEP">     0</i>
   <i type="int" name="FOURORBIT">     0</i>
   <i name="AEXX">      0.00000000</i>
   <i name="HFALPHA">      0.00000000</i>
   <i name="MCALPHA">      0.00000000</i>
   <i name="ALDAX">      1.00000000</i>
   <i name="AGGAX">      1.00000000</i>
   <i name="AMGGAX">      1.00000000</i>
   <i name="ALDAC">      1.00000000</i>
   <i name="AGGAC">      1.00000000</i>
   <i name="AMGGAC">      1.00000000</i>
   <i type="int" name="NKREDX">     1</i>
   <i type="int" name="NKREDY">     1</i>
   <i type="int" name="NKREDZ">     1</i>
   <i type="logical" name="SHIFTRED"> F  </i>
   <i type="logical" name="ODDONLY"> F  </i>
   <i type="logical" name="EVENONLY"> F  </i>
   <i type="int" name="LMAXFOCK">     0</i>
   <i type="int" name="NMAXFOCKAE">     0</i>
   <i type="logical" name="LFOCKAEDFT"> F  </i>
   <i name="HFSCREEN">      0.00000000</i>
   <i name="HFSCREENC">      0.00000000</i>
   <i type="int" name="NBANDSGWLOW">     0</i>
  </separator>
  <separator name="vdW DFT" >
   <i type="logical" name="LUSE_VDW"> F  </i>
   <i type="int" name="IVDW_NL">    -1</i>
   <i type="logical" name="LSPIN_VDW"> F  </i>
   <i name="ZAB_VDW">     -0.84910000</i>
   <i name="GAMMA_VDW">      1.39626340</i>
   <i name="ALPHA_VDW">      0.00000000</i>
   <i name="PARAM1">      0.12340000</i>
   <i name="PARAM2">      1.00000000</i>
   <i name="BPARAM">      6.30000000</i>
   <i name="CPARAM">      0.00930000</i>
  </separator>
  <separator name="model GW" >
   <i type="int" name="MODEL_GW">     0</i>
   <i name="MODEL_EPS0">      8.03451045</i>
   <i name="MODEL_ALPHA">      1.00000000</i>
  </separator>
  <separator name="linear response parameters" >
   <i type="logical" name="LEPSILON"> F  </i>
   <i type="logical" name="LRPA"> F  </i>
   <i type="logical" name="LNABLA"> F  </i>
   <i type="logical" name="LVEL"> F  </i>
   <i name="CSHIFT">      0.10000000</i>
   <i name="OMEGAMAX">     -1.00000000</i>
   <i name="DEG_THRESHOLD">      0.00200000</i>
   <i name="RTIME">     -0.10000000</i>
   <i name="WPLASMAI">      0.00000000</i>
   <v name="DFIELD">      0.00000000      0.00000000      0.00000000</v>
   <v name="WPLASMA">      0.00000000      0.00000000      0.00000000      0.00000000      0.00000000      0.00000000      0.00000000      0.00000000      0.00000000</v>
  </separator>
  <separator name="orbital magnetization" >
   <i type="logical" name="NUCIND"> F  </i>
   <v name="MAGPOS">      0.00000000      0.00000000      0.00000000</v>
   <i type="logical" name="LNICSALL"> T  </i>
   <i type="logical" name="ORBITALMAG"> F  </i>
   <i type="logical" name="LMAGBLOCH"> F  </i>
   <i type="logical" name="LCHIMAG"> F  </i>
   <i type="logical" name="LGAUGE"> T  </i>
   <i type="int" name="MAGATOM">     0</i>
   <v name="MAGDIPOL">      0.00000000      0.00000000      0.00000000</v>
   <v name="AVECCONST">      0.00000000      0.00000000      0.00000000</v>
  </separator>
  <separator name="response functions" >
   <i type="logical" name="LALL_IN_ONE"> F  </i>
   <i type="int" name="IALL_IN_ONE">    -1</i>
   <i type="int" name="NBANDS_WAVE">    -1</i>
   <i type="logical" name="LFINITE_TEMPERATURE"> F  </i>
   <i type="logical" name="LADDER"> F  </i>
   <i type="logical" name="LRPAFORCE"> F  </i>
   <i type="logical" name="LFXC"> F  </i>
   <i type="logical" name="LHARTREE"> T  </i>
   <i type="int" name="IBSE">     0</i>
   <v type="int" name="KPOINT">    -1     0     0     0</v>
   <i type="logical" name="LTCTC"> F  </i>
   <i type="logical" name="LTCTE"> F  </i>
   <i type="logical" name="LTETE"> F  </i>
   <i type="logical" name="LTRIPLET"> F  </i>
   <i type="logical" name="LFXCEPS"> F  </i>
   <i type="logical" name="LFXHEG"> F  </i>
   <i type="int" name="NATURALO">     2</i>
   <i type="logical" name="LHOLEGF"> F  </i>
   <i type="logical" name="L2ORDER"> F  </i>
   <i type="logical" name="LDMP1"> F  </i>
   <i type="logical" name="LMP2LT"> F  </i>
   <i type="logical" name="LSMP2LT"> F  </i>
   <i type="logical" name="LGWLF"> F  </i>
   <i name="ENCUTGW">     -1.60000002</i>
   <i name="ENCUTGWSOFT">     -1.60000002</i>
   <i name="ENCUTLF">     -1.00000000</i>
   <i type="logical" name="ESF_SPLINES"> F  </i>
   <i name="ESF_CONV">      0.01000000</i>
   <i type="int" name="ESF_NINTER">    15</i>
   <i type="int" name="LMAXMP2">    -1</i>
   <i name="SCISSOR">      0.00000000</i>
   <i type="int" name="NOMEGA">     0</i>
   <i type="int" name="NOMEGAR">     0</i>
   <i type="int" name="NBANDSGW">    -1</i>
   <i type="int" name="NBANDSO">    -1</i>
   <i type="int" name="NBANDSV">    -1</i>
   <i type="int" name="NELMGW">     1</i>
   <i type="int" name="NELMHF">     1</i>
   <i type="int" name="DIM">     3</i>
   <i type="int" name="IESPILON">     4</i>
   <i type="int" name="ANTIRES">     0</i>
   <i name="OMEGAMAX">    -30.00000000</i>
   <i name="OMEGAMIN">    -30.00000000</i>
   <i name="OMEGATL">   -200.00000000</i>
   <i type="int" name="OMEGAGRID">     0</i>
   <i name="CSHIFT">     -0.10000000</i>
   <i type="logical" name="LSELFENERGY"> F  </i>
   <i type="logical" name="LSPECTRAL"> F  </i>
   <i type="logical" name="LSPECTRALGW"> F  </i>
   <i type="logical" name="LSINGLES"> F  </i>
   <i type="logical" name="LFERMIGW"> F  </i>
   <i type="logical" name="ODDONLYGW"> F  </i>
   <i type="logical" name="EVENONLYGW"> F  </i>
   <i type="int" name="NKREDLFX">     1</i>
   <i type="int" name="NKREDLFY">     1</i>
   <i type="int" name="NKREDLFZ">     1</i>
   <i type="int" name="MAXMEM">  2800</i>
   <i type="int" name="TELESCOPE">     0</i>
   <i type="int" name="NTAUPAR">    -1</i>
   <i type="int" name="NOMEGAPAR">    -1</i>
   <i name="DAMP_NEWTON">      0.80000001</i>
   <i name="LAMBDA">      1.00000000</i>
  </separator>
  <separator name="External order field" >
   <i name="OFIELD_KAPPA">      0.00000000</i>
   <v name="OFIELD_K">      0.00000000      0.00000000      0.00000000</v>
   <i name="OFIELD_Q6_NEAR">      0.00000000</i>
   <i name="OFIELD_Q6_FAR">      0.00000000</i>
   <i name="OFIELD_A">      0.00000000</i>
  </separator>
  <separator name="optional k-points parameters" >
   <i type="int" name="KPOINTS_OPT_MODE">     1</i>
   <i type="logical" name="LKPOINTS_OPT"> F  </i>
  </separator>
 </parameters>
 <atominfo>
  <atoms>      10 </atoms>
  <types>       2 </types>
  <array name="atoms" >
   <dimension dim="1">ion</dimension>
   <field type="string">element</field>
   <field type="int">atomtype</field>
   <set>
    <rc><c>Al</c><c>   1</c></rc>
    <rc><c>Al</c><c>   1</c></rc>
    <rc><c>Al</c><c>   1</c></rc>
    <rc><c>Al</c><c>   1</c></rc>
    <rc><c>O </c><c>   2</c></rc>
    <rc><c>O </c><c>   2</c></rc>
    <rc><c>O </c><c>   2</c></rc>
    <rc><c>O </c><c>   2</c></rc>
    <rc><c>O </c><c>   2</c></rc>
    <rc><c>O </c><c>   2</c></rc>
   </set>
  </array>
  <array name="atomtypes" >
   <dimension dim="1">type</dimension>
   <field type="int">atomspertype</field>
   <field type="string">element</field>
   <field>mass</field>
   <field>valence</field>
   <field type="string">pseudopotential</field>
   <set>
    <rc><c>   4</c><c>Al</c><c>     26.98200000</c><c>      3.00000000</c><c> PAW_PBE Al 04Jan2001                   </c></rc>
    <rc><c>   6</c><c>O </c><c>     16.00000000</c><c>      6.00000000</c><c> PAW_PBE O 08Apr2002                    </c></rc>
   </set>
  </array>
 </atominfo>
 <structure name="initialpos" >
  <crystal>
   <varray name="basis" >
    <v>       2.77016400      -4.86436700       0.00000000 </v>
    <v>       2.77016400       4.86436700       0.00000000 </v>
    <v>       0.00000000       0.00000000       4.96874100 </v>
   </varray>
   <i name="volume">    133.90850751 </i>
   <varray name="rec_basis" >
    <v>       0.18049473      -0.10278830       0.00000000 </v>
    <v>       0.18049473       0.10278830       0.00000000 </v>
    <v>       0.00000000       0.00000000       0.20125823 </v>
   </varray>
  </crystal>
  <varray name="positions" >
   <v>       0.00459800       0.67063400       0.93113900 </v>
   <v>       0.67063400       0.00459800       0.93113900 </v>
   <v>       0.32936600       0.99540200       0.43113900 </v>
   <v>       0.99540200       0.32936600       0.43113900 </v>
   <v>       0.22843100       0.22843100       0.49432000 </v>
   <v>       0.09775700       0.66036400       0.58557100 </v>
   <v>       0.66036400       0.09775700       0.58557100 </v>
   <v>       0.33963600       0.90224300       0.08557100 </v>
   <v>       0.90224300       0.33963600       0.08557100 </v>
   <v>       0.77156900       0.77156900       0.99432000 </v>
  </varray>
 </structure>
 <calculation>
  <scstep>
   <time name="dav">    1.81    1.82</time>
   <time name="total">    2.04    2.05</time>
   <energy>
    <i name="alphaZ">     48.19562485 </i>
    <i name="ewald">  -1782.85334589 </i>
    <i name="hartreedc">   -958.79181805 </i>
    <i name="XCdc">     62.50407227 </i>
    <i name="pawpsdc">   1617.84162041 </i>
    <i name="pawaedc">  -1501.11164650 </i>
    <i name="eentropy">      0.00000000 </i>
    <i name="bandstr">   -161.47922320 </i>
    <i name="atom">   2808.30174739 </i>
    <i name="e_fr_energy">    132.60703128 </i>
    <i name="e_wo_entrp">    132.60703128 </i>
    <i name="e_0_energy">    132.60703128 </i>
   </energy>
  </scstep>
  <scstep>
   <time name="dav">    2.20    2.22</time>
   <time name="total">    2.21    2.22</time>
   <energy>
    <i name="e_fr_energy">    -77.25845088 </i>
    <i name="e_wo_entrp">    -77.25845088 </i>
    <i name="e_0_energy">    -77.25845088 </i>
   </energy>
  </scstep>
  <scstep>
   <time name="dav">    2.06    2.08</time>
   <time name="total">    2.07    2.08</time>
   <energy>
    <i name="e_fr_energy">    -84.46956161 </i>
    <i name="e_wo_entrp">    -84.46956161 </i>
    <i name="e_0_energy">    -84.46956161 </i>
   </energy>
  </scstep>
  <scstep>
   <time name="dav">    2.29    2.30</time>
   <time name="total">    2.29    2.30</time>
   <energy>
    <i name="e_fr_energy">    -84.52612614 </i>
    <i name="e_wo_entrp">    -84.52612614 </i>
    <i name="e_0_energy">    -84.52612614 </i>
   </energy>
  </scstep>
  <scstep>
   <time name="dav">    2.05    2.07</time>
   <time name="total">    2.13    2.14</time>
   <energy>
    <i name="e_fr_energy">    -84.52700414 </i>
    <i name="e_wo_entrp">    -84.52700414 </i>
    <i name="e_0_energy">    -84.52700414 </i>
   </energy>
  </scstep>
  <scstep>
   <time name="diag">    0.26    0.26</time>
   <time name="diis">    0.93    0.94</time>
   <time name="orth">    0.02    0.02</time>
   <time name="total">    1.43    1.44</time>
   <energy>
    <i name="e_fr_energy">    -74.25926808 </i>
    <i name="e_wo_entrp">    -74.25926808 </i>
    <i name="e_0_energy">    -74.25926808 </i>
   </energy>
  </scstep>
  <scstep>
   <time name="diag">    0.26    0.26</time>
   <time name="diis">    0.93    0.94</time>
   <time name="orth">    0.02    0.02</time>
   <time name="total">    1.42    1.43</time>
   <energy>
    <i name="e_fr_energy">    -74.35144829 </i>
    <i name="e_wo_entrp">    -74.35144829 </i>
    <i name="e_0_energy">    -74.35144829 </i>
   </energy>
  </scstep>
  <scstep>
   <time name="diag">    0.27    0.27</time>
   <time name="diis">    0.94    0.94</time>
   <time name="orth">    0.02    0.02</time>
   <time name="total">    1.44    1.45</time>
   <energy>
    <i name="e_fr_energy">    -74.34403086 </i>
    <i name="e_wo_entrp">    -74.34403086 </i>
    <i name="e_0_energy">    -74.34403086 </i>
   </energy>
  </scstep>
  <scstep>
   <time name="diag">    0.26    0.26</time>
   <time name="diis">    1.07    1.08</time>
   <time name="orth">    0.02    0.02</time>
   <time name="total">    1.57    1.58</time>
   <energy>
    <i name="e_fr_energy">    -74.35920567 </i>
    <i name="e_wo_entrp">    -74.35920567 </i>
    <i name="e_0_energy">    -74.35920567 </i>
   </energy>
  </scstep>
  <scstep>
   <time name="diag">    0.28    0.28</time>
   <time name="diis">    0.98    0.98</time>
   <time name="orth">    0.02    0.02</time>
   <time name="total">    1.50    1.51</time>
   <energy>
    <i name="e_fr_energy">    -74.35576400 </i>
    <i name="e_wo_entrp">    -74.35576400 </i>
    <i name="e_0_energy">    -74.35576400 </i>
   </energy>
  </scstep>
  <scstep>
   <time name="diag">    0.26    0.27</time>
   <time name="diis">    0.95    0.95</time>
   <time name="orth">    0.02    0.02</time>
   <time name="total">    1.45    1.46</time>
   <energy>
    <i name="e_fr_energy">    -74.35788584 </i>
    <i name="e_wo_entrp">    -74.35788584 </i>
    <i name="e_0_energy">    -74.35788584 </i>
   </energy>
  </scstep>
  <scstep>
   <time name="diag">    0.27    0.27</time>
   <time name="diis">    0.90    0.90</time>
   <time name="orth">    0.02    0.02</time>
   <time name="total">    1.34    1.35</time>
   <energy>
    <i name="alphaZ">     48.19562485 </i>
    <i name="ewald">  -1782.85334589 </i>
    <i name="hartreedc">  -1104.90661338 </i>
    <i name="XCdc">     71.81092223 </i>
    <i name="pawpsdc">   2020.79580647 </i>
    <i name="pawaedc">  -1906.17312095 </i>
    <i name="eentropy">      0.00000000 </i>
    <i name="bandstr">   -229.52853305 </i>
    <i name="atom">   2808.30174739 </i>
    <i name="e_fr_energy">    -74.35751235 </i>
    <i name="e_wo_entrp">    -74.35751235 </i>
    <i name="e_0_energy">    -74.35751235 </i>
   </energy>
  </scstep>
  <structure>
   <crystal>
    <varray name="basis" >
     <v>       2.77016400      -4.86436700       0.00000000 </v>
     <v>       2.77016400       4.86436700       0.00000000 </v>
     <v>       0.00000000       0.00000000       4.96874100 </v>
    </varray>
    <i name="volume">    133.90850751 </i>
    <varray name="rec_basis" >
     <v>       0.18049473      -0.10278830       0.00000000 </v>
     <v>       0.18049473       0.10278830       0.00000000 </v>
     <v>       0.00000000       0.00000000       0.20125823 </v>
    </varray>
   </crystal>
   <varray name="positions" >
    <v>       0.00459800       0.67063400       0.93113900 </v>
    <v>       0.67063400       0.00459800       0.93113900 </v>
    <v>       0.32936600       0.99540200       0.43113900 </v>
    <v>       0.99540200       0.32936600       0.43113900 </v>
    <v>       0.22843100       0.22843100       0.49432000 </v>
    <v>       0.09775700       0.66036400       0.58557100 </v>
    <v>       0.66036400       0.09775700       0.58557100 </v>
    <v>       0.33963600       0.90224300       0.08557100 </v>
    <v>       0.90224300       0.33963600       0.08557100 </v>
    <v>       0.77156900       0.77156900       0.99432000 </v>
   </varray>
  </structure>
  <varray name="forces" >
   <v>       0.01127361      -0.07085048      -0.00162332 </v>
   <v>       0.01127361       0.07085048      -0.00162332 </v>
   <v>      -0.01127361      -0.07085048      -0.00162332 </v>
   <v>      -0.01127361       0.07085048      -0.00162332 </v>
   <v>      -0.07901522      -0.00000000      -0.04060176 </v>
   <v>       0.01826037      -0.01337493       0.02192420 </v>
   <v>       0.01826037       0.01337493       0.02192420 </v>
   <v>      -0.01826037      -0.01337493       0.02192420 </v>
   <v>      -0.01826037       0.01337493       0.02192420 </v>
   <v>       0.07901522      -0.00000000      -0.04060176 </v>
  </varray>
  <varray name="stress" >
   <v>      -0.47941656       0.00000000       0.00000000 </v>
   <v>       0.00000000       2.86366894       0.00000000 </v>
   <v>       0.00000000       0.00000000      -2.47711527 </v>
  </varray>
  <energy>
   <i name="e_fr_energy">    -74.35751235 </i>
   <i name="e_wo_entrp">    -74.35751235 </i>
   <i name="e_0_energy">    -74.35751235 </i>
  </energy>
  <time name="totalsc">   23.76   23.93</time>
 </calculation>
 <calculation>
  <scstep>
   <time name="dav">    2.37    2.39</time>
   <time name="total">    2.59    2.60</time>
   <energy>
    <i name="alphaZ">     48.19748653 </i>
    <i name="ewald">  -1781.65054812 </i>
    <i name="hartreedc">  -1105.79383008 </i>
    <i name="XCdc">     71.81633741 </i>
    <i name="pawpsdc">   2020.49251556 </i>
    <i name="pawaedc">  -1905.86458259 </i>
    <i name="eentropy">      0.00000000 </i>
    <i name="bandstr">   -229.85758966 </i>
    <i name="atom">   2808.30174739 </i>
    <i name="e_fr_energy">    -74.35846355 </i>
    <i name="e_wo_entrp">    -74.35846355 </i>
    <i name="e_0_energy">    -74.35846355 </i>
   </energy>
  </scstep>
  <scstep>
   <time name="diag">    0.26    0.26</time>
   <time name="diis">    1.08    1.09</time>
   <time name="orth">    0.02    0.02</time>
   <time name="total">    1.51    1.52</time>
   <energy>
    <i name="alphaZ">     48.19748653 </i>
    <i name="ewald">  -1781.65054812 </i>
    <i name="hartreedc">  -1105.80864831 </i>
    <i name="XCdc">     71.81493409 </i>
    <i name="pawpsdc">   2020.57599463 </i>
    <i name="pawaedc">  -1905.94809314 </i>
    <i name="eentropy">      0.00000000 </i>
    <i name="bandstr">   -229.84123404 </i>
    <i name="atom">   2808.30174739 </i>
    <i name="e_fr_energy">    -74.35836097 </i>
    <i name="e_wo_entrp">    -74.35836097 </i>
    <i name="e_0_energy">    -74.35836097 </i>
   </energy>
  </scstep>
  <structure>
   <crystal>
    <varray name="basis" >
     <v>       2.76962852      -4.86998366       0.00000000 </v>
     <v>       2.76962852       4.86998366       0.00000000 </v>
     <v>       0.00000000       0.00000000       4.96377826 </v>
    </varray>
    <i name="volume">    133.90333514 </i>
    <varray name="rec_basis" >
     <v>       0.18052963      -0.10266975       0.00000000 </v>
     <v>       0.18052963       0.10266975       0.00000000 </v>
     <v>       0.00000000       0.00000000       0.20145944 </v>
    </varray>
   </crystal>
   <varray name="positions" >
    <v>       0.00504750       0.67038083       0.93112324 </v>
    <v>       0.67038083       0.00504750       0.93112324 </v>
    <v>       0.32961917       0.99495250       0.43112324 </v>
    <v>       0.99495250       0.32961917       0.43112324 </v>
    <v>       0.22774297       0.22774297       0.49392579 </v>
    <v>       0.09798233       0.66045668       0.58578387 </v>
    <v>       0.66045668       0.09798233       0.58578387 </v>
    <v>       0.33954332       0.90201767       0.08578387 </v>
    <v>       0.90201767       0.33954332       0.08578387 </v>
    <v>       0.77225703       0.77225703       0.99392579 </v>
   </varray>
  </structure>
  <varray name="forces" >
   <v>      -0.02173549       0.09769625       0.03569009 </v>
   <v>      -0.02173549      -0.09769625       0.03569009 </v>
   <v>       0.02173549       0.09769625       0.03569009 </v>
   <v>       0.02173549      -0.09769625       0.03569009 </v>
   <v>      -0.08286776      -0.00000000      -0.05388367 </v>
   <v>      -0.00345073      -0.03066999      -0.00874826 </v>
   <v>      -0.00345073       0.03066999      -0.00874826 </v>
   <v>       0.00345073      -0.03066999      -0.00874826 </v>
   <v>       0.00345073       0.03066999      -0.00874826 </v>
   <v>       0.08286776      -0.00000000      -0.05388367 </v>
  </varray>
  <varray name="stress" >
   <v>       4.38468193       0.00000000       0.00000000 </v>
   <v>       0.00000000       0.42045741       0.00000000 </v>
   <v>       0.00000000       0.00000000       2.53124795 </v>
  </varray>
  <energy>
   <i name="e_fr_energy">    -74.35836097 </i>
   <i name="e_wo_entrp">    -74.35836097 </i>
   <i name="e_0_energy">    -74.35836097 </i>
  </energy>
  <time name="totalsc">    6.42    6.46</time>
 </calculation>
 <calculation>
  <scstep>
   <time name="dav">    2.16    2.17</time>
   <time name="total">    2.39    2.40</time>
   <energy>
    <i name="alphaZ">     48.19703241 </i>
    <i name="ewald">  -1781.93847988 </i>
    <i name="hartreedc">  -1105.61894021 </i>
    <i name="XCdc">     71.81344033 </i>
    <i name="pawpsdc">   2020.73650218 </i>
    <i name="pawaedc">  -1906.11003098 </i>
    <i name="eentropy">      0.00000000 </i>
    <i name="bandstr">   -229.73961985 </i>
    <i name="atom">   2808.30174739 </i>
    <i name="e_fr_energy">    -74.35834860 </i>
    <i name="e_wo_entrp">    -74.35834860 </i>
    <i name="e_0_energy">    -74.35834860 </i>
   </energy>
  </scstep>
  <scstep>
   <time name="diag">    0.26    0.26</time>
   <time name="diis">    0.68    0.69</time>
   <time name="orth">    0.02    0.02</time>
   <time name="total">    1.11    1.11</time>
   <energy>
    <i name="alphaZ">     48.19703241 </i>
    <i name="ewald">  -1781.93847988 </i>
    <i name="hartreedc">  -1105.63691149 </i>
    <i name="XCdc">     71.81448756 </i>
    <i name="pawpsdc">   2020.76108662 </i>
    <i name="pawaedc">  -1906.13472478 </i>
    <i name="eentropy">      0.00000000 </i>
    <i name="bandstr">   -229.72259904 </i>
    <i name="atom">   2808.30174739 </i>
    <i name="e_fr_energy">    -74.35836122 </i>
    <i name="e_wo_entrp">    -74.35836122 </i>
    <i name="e_0_energy">    -74.35836122 </i>
   </energy>
  </scstep>
  <structure>
   <crystal>
    <varray name="basis" >
     <v>       2.76975615      -4.86864486       0.00000000 </v>
     <v>       2.76975615       4.86864486       0.00000000 </v>
     <v>       0.00000000       0.00000000       4.96496119 </v>
    </varray>
    <i name="volume">    133.90459679 </i>
    <varray name="rec_basis" >
     <v>       0.18052131      -0.10269798       0.00000000 </v>
     <v>       0.18052131       0.10269798       0.00000000 </v>
     <v>       0.00000000       0.00000000       0.20141144 </v>
    </varray>
   </crystal>
   <varray name="positions" >
    <v>       0.00494045       0.67044108       0.93112700 </v>
    <v>       0.67044108       0.00494045       0.93112700 </v>
    <v>       0.32955892       0.99505955       0.43112700 </v>
    <v>       0.99505955       0.32955892       0.43112700 </v>
    <v>       0.22790700       0.22790700       0.49401985 </v>
    <v>       0.09792863       0.66043456       0.58573308 </v>
    <v>       0.66043456       0.09792863       0.58573308 </v>
    <v>       0.33956544       0.90207137       0.08573308 </v>
    <v>       0.90207137       0.33956544       0.08573308 </v>
    <v>       0.77209300       0.77209300       0.99401985 </v>
   </varray>
  </structure>
  <varray name="forces" >
   <v>      -0.01400990       0.05588322       0.02790482 </v>
   <v>      -0.01400990      -0.05588322       0.02790482 </v>
   <v>       0.01400990       0.05588322       0.02790482 </v>
   <v>       0.01400990      -0.05588322       0.02790482 </v>
   <v>      -0.09957778       0.00000000      -0.06292234 </v>
   <v>       0.00758686      -0.03994134       0.00355635 </v>
   <v>       0.00758686       0.03994134       0.00355635 </v>
   <v>      -0.00758686      -0.03994134       0.00355635 </v>
   <v>      -0.00758686       0.03994134       0.00355635 </v>
   <v>       0.09957778       0.00000000      -0.06292234 </v>
  </varray>
  <varray name="stress" >
   <v>       3.43235949       0.00000000       0.00000000 </v>
   <v>       0.00000000      -1.12565861       0.00000000 </v>
   <v>       0.00000000       0.00000000       3.56742174 </v>
  </varray>
  <energy>
   <i name="e_fr_energy">    -74.35836122 </i>
   <i name="e_wo_entrp">    -74.35836122 </i>
   <i name="e_0_energy">    -74.35836122 </i>
  </energy>
  <time name="totalsc">    5.32    5.37</time>
  <eigenvalues>
   <array>
    <dimension dim="1">band</dimension>
    <dimension dim="2">kpoint</dimension>
    <dimension dim="3">spin</dimension>
    <field>eigene</field>
    <field>occ</field>
    <set>
     <set comment="spin 1">
      <set comment="kpoint 1">
       <r>  -16.9590    1.0000 </r>
       <r>  -15.8778    1.0000 </r>
       <r>  -15.8505    1.0000 </r>
       <r>  -15.7429    1.0000 </r>
       <r>  -14.2179    1.0000 </r>
       <r>  -14.1984    1.0000 </r>
       <r>   -4.4767    1.0000 </r>
       <r>   -4.2097    1.0000 </r>
       <r>   -4.2061    1.0000 </r>
       <r>   -2.9262    1.0000 </r>
       <r>   -2.5944    1.0000 </r>
       <r>   -2.4510    1.0000 </r>
       <r>   -1.5075    1.0000 </r>
       <r>   -1.4885    1.0000 </r>
       <r>   -1.3285    1.0000 </r>
       <r>   -0.9648    1.0000 </r>
       <r>   -0.1068    1.0000 </r>
       <r>   -0.0848    1.0000 </r>
       <r>    0.0387    1.0000 </r>
       <r>    0.1643    1.0000 </r>
       <r>    0.7387    1.0000 </r>
       <r>    1.0826    1.0000 </r>
       <r>    1.4548    1.0000 </r>
       <r>    1.5143    1.0000 </r>
       <r>    5.7154    0.0000 </r>
       <r>   10.1194    0.0000 </r>
       <r>   10.1857    0.0000 </r>
       <r>   10.5731    0.0000 </r>
       <r>   10.7864    0.0000 </r>
       <r>   10.8808    0.0000 </r>
       <r>   11.4896    0.0000 </r>
       <r>   11.5489    0.0000 </r>
       <r>   11.7247    0.0000 </r>
       <r>   11.9034    0.0000 </r>
       <r>   12.3659    0.0000 </r>
       <r>   12.6494    0.0000 </r>
       <r>   13.2231    0.0000 </r>
       <r>   13.9786    0.0000 </r>
       <r>   14.8681    0.0000 </r>
       <r>   15.0181    0.0000 </r>
       <r>   15.5836    0.0000 </r>
       <r>   16.1505    0.0000 </r>
       <r>   16.5503    0.0000 </r>
       <r>   16.7412    0.0000 </r>
       <r>   17.5588    0.0000 </r>
       <r>   18.1092    0.0000 </r>
       <r>   18.1511    0.0000 </r>
       <r>   19.1427    0.0000 </r>
       <r>   19.3390    0.0000 </r>
       <r>   20.4103    0.0000 </r>
       <r>   20.4157    0.0000 </r>
       <r>   21.0843    0.0000 </r>
       <r>   21.6107    0.0000 </r>
       <r>   21.8389    0.0000 </r>
       <r>   22.0333    0.0000 </r>
       <r>   22.7273    0.0000 </r>
       <r>   23.0087    0.0000 </r>
       <r>   23.7265    0.0000 </r>
       <r>   24.2850    0.0000 </r>
       <r>   24.3053    0.0000 </r>
       <r>   24.7801    0.0000 </r>
       <r>   24.9793    0.0000 </r>
       <r>   25.3498    0.0000 </r>
       <r>   25.5266    0.0000 </r>
      </set>
      <set comment="kpoint 2">
       <r>  -16.8396    1.0000 </r>
       <r>  -16.1337    1.0000 </r>
       <r>  -15.8022    1.0000 </r>
       <r>  -15.6666    1.0000 </r>
       <r>  -14.2346    1.0000 </r>
       <r>  -14.2118    1.0000 </r>
       <r>   -4.3494    1.0000 </r>
       <r>   -4.1013    1.0000 </r>
       <r>   -3.7094    1.0000 </r>
       <r>   -3.2170    1.0000 </r>
       <r>   -2.6416    1.0000 </r>
       <r>   -2.4031    1.0000 </r>
       <r>   -1.7394    1.0000 </r>
       <r>   -1.2794    1.0000 </r>
       <r>   -1.2729    1.0000 </r>
       <r>   -1.1442    1.0000 </r>
       <r>   -0.3285    1.0000 </r>
       <r>   -0.2107    1.0000 </r>
       <r>   -0.1774    1.0000 </r>
       <r>    0.0609    1.0000 </r>
       <r>    0.8299    1.0000 </r>
       <r>    1.1058    1.0000 </r>
       <r>    1.3256    1.0000 </r>
       <r>    1.4559    1.0000 </r>
       <r>    6.5005    0.0000 </r>
       <r>    9.7247    0.0000 </r>
       <r>   10.0741    0.0000 </r>
       <r>   10.5360    0.0000 </r>
       <r>   10.7148    0.0000 </r>
       <r>   10.8693    0.0000 </r>
       <r>   11.3703    0.0000 </r>
       <r>   11.6334    0.0000 </r>
       <r>   12.0622    0.0000 </r>
       <r>   12.3371    0.0000 </r>
       <r>   12.7633    0.0000 </r>
       <r>   12.8896    0.0000 </r>
       <r>   13.4186    0.0000 </r>
       <r>   13.9038    0.0000 </r>
       <r>   14.5169    0.0000 </r>
       <r>   14.9083    0.0000 </r>
       <r>   15.6429    0.0000 </r>
       <r>   15.6909    0.0000 </r>
       <r>   16.4957    0.0000 </r>
       <r>   16.9291    0.0000 </r>
       <r>   17.5493    0.0000 </r>
       <r>   17.8929    0.0000 </r>
       <r>   18.4387    0.0000 </r>
       <r>   18.9028    0.0000 </r>
       <r>   19.0167    0.0000 </r>
       <r>   19.7272    0.0000 </r>
       <r>   20.0381    0.0000 </r>
       <r>   20.1446    0.0000 </r>
       <r>   21.4823    0.0000 </r>
       <r>   21.6183    0.0000 </r>
       <r>   22.0945    0.0000 </r>
       <r>   22.7510    0.0000 </r>
       <r>   22.8117    0.0000 </r>
       <r>   23.5414    0.0000 </r>
       <r>   24.2558    0.0000 </r>
       <r>   24.4861    0.0000 </r>
       <r>   25.0295    0.0000 </r>
       <r>   25.3192    0.0000 </r>
       <r>   25.6105    0.0000 </r>
       <r>   25.7111    0.0000 </r>
      </set>
      <set comment="kpoint 3">
       <r>  -16.5454    1.0000 </r>
       <r>  -16.5010    1.0000 </r>
       <r>  -15.7063    1.0000 </r>
       <r>  -15.7010    1.0000 </r>
       <r>  -14.2492    1.0000 </r>
       <r>  -14.2272    1.0000 </r>
       <r>   -4.0189    1.0000 </r>
       <r>   -3.9553    1.0000 </r>
       <r>   -3.3868    1.0000 </r>
       <r>   -3.2481    1.0000 </r>
       <r>   -2.8161    1.0000 </r>
       <r>   -2.5231    1.0000 </r>
       <r>   -1.8132    1.0000 </r>
       <r>   -1.6305    1.0000 </r>
       <r>   -1.1935    1.0000 </r>
       <r>   -0.9720    1.0000 </r>
       <r>   -0.5575    1.0000 </r>
       <r>   -0.4452    1.0000 </r>
       <r>   -0.2138    1.0000 </r>
       <r>   -0.0651    1.0000 </r>
       <r>    0.9111    1.0000 </r>
       <r>    1.1318    1.0000 </r>
       <r>    1.2850    1.0000 </r>
       <r>    1.3192    1.0000 </r>
       <r>    7.8848    0.0000 </r>
       <r>    8.3807    0.0000 </r>
       <r>   10.1984    0.0000 </r>
       <r>   10.5270    0.0000 </r>
       <r>   10.8556    0.0000 </r>
       <r>   10.8761    0.0000 </r>
       <r>   11.4338    0.0000 </r>
       <r>   11.4825    0.0000 </r>
       <r>   12.5409    0.0000 </r>
       <r>   12.6651    0.0000 </r>
       <r>   13.2607    0.0000 </r>
       <r>   13.3697    0.0000 </r>
       <r>   13.7631    0.0000 </r>
       <r>   13.9535    0.0000 </r>
       <r>   13.9660    0.0000 </r>
       <r>   14.2184    0.0000 </r>
       <r>   15.2252    0.0000 </r>
       <r>   15.6870    0.0000 </r>
       <r>   16.1092    0.0000 </r>
       <r>   16.9911    0.0000 </r>
       <r>   17.6568    0.0000 </r>
       <r>   17.6617    0.0000 </r>
       <r>   18.2107    0.0000 </r>
       <r>   18.6713    0.0000 </r>
       <r>   19.6165    0.0000 </r>
       <r>   19.6266    0.0000 </r>
       <r>   20.2604    0.0000 </r>
       <r>   20.5532    0.0000 </r>
       <r>   20.7546    0.0000 </r>
       <r>   20.9135    0.0000 </r>
       <r>   21.8927    0.0000 </r>
       <r>   21.9724    0.0000 </r>
       <r>   22.6087    0.0000 </r>
       <r>   23.1653    0.0000 </r>
       <r>   23.4700    0.0000 </r>
       <r>   23.7665    0.0000 </r>
       <r>   25.2765    0.0000 </r>
       <r>   25.4086    0.0000 </r>
       <r>   26.0406    0.0000 </r>
       <r>   26.1415    0.0000 </r>
      </set>
      <set comment="kpoint 4">
       <r>  -16.5545    1.0000 </r>
       <r>  -16.4911    1.0000 </r>
       <r>  -15.7081    1.0000 </r>
       <r>  -15.6991    1.0000 </r>
       <r>  -14.2776    1.0000 </r>
       <r>  -14.1992    1.0000 </r>
       <r>   -4.1063    1.0000 </r>
       <r>   -3.8706    1.0000 </r>
       <r>   -3.3380    1.0000 </r>
       <r>   -3.1493    1.0000 </r>
       <r>   -2.9923    1.0000 </r>
       <r>   -2.5041    1.0000 </r>
       <r>   -1.8175    1.0000 </r>
       <r>   -1.6516    1.0000 </r>
       <r>   -1.1749    1.0000 </r>
       <r>   -0.9575    1.0000 </r>
       <r>   -0.7639    1.0000 </r>
       <r>   -0.2766    1.0000 </r>
       <r>   -0.1547    1.0000 </r>
       <r>    0.0355    1.0000 </r>
       <r>    0.7823    1.0000 </r>
       <r>    1.1628    1.0000 </r>
       <r>    1.2527    1.0000 </r>
       <r>    1.3282    1.0000 </r>
       <r>    7.6941    0.0000 </r>
       <r>    8.9314    0.0000 </r>
       <r>    9.5461    0.0000 </r>
       <r>   10.4338    0.0000 </r>
       <r>   10.7602    0.0000 </r>
       <r>   11.2918    0.0000 </r>
       <r>   11.5016    0.0000 </r>
       <r>   11.8742    0.0000 </r>
       <r>   11.9962    0.0000 </r>
       <r>   12.7726    0.0000 </r>
       <r>   13.3165    0.0000 </r>
       <r>   13.4075    0.0000 </r>
       <r>   13.7148    0.0000 </r>
       <r>   13.8958    0.0000 </r>
       <r>   14.1061    0.0000 </r>
       <r>   14.1957    0.0000 </r>
       <r>   15.0714    0.0000 </r>
       <r>   15.9228    0.0000 </r>
       <r>   16.3742    0.0000 </r>
       <r>   16.7731    0.0000 </r>
       <r>   17.4257    0.0000 </r>
       <r>   17.9803    0.0000 </r>
       <r>   18.1641    0.0000 </r>
       <r>   18.3927    0.0000 </r>
       <r>   19.2137    0.0000 </r>
       <r>   19.6385    0.0000 </r>
       <r>   19.9311    0.0000 </r>
       <r>   20.4187    0.0000 </r>
       <r>   20.7812    0.0000 </r>
       <r>   20.9927    0.0000 </r>
       <r>   22.4359    0.0000 </r>
       <r>   22.5396    0.0000 </r>
       <r>   22.9372    0.0000 </r>
       <r>   23.0715    0.0000 </r>
       <r>   23.1559    0.0000 </r>
       <r>   24.8799    0.0000 </r>
       <r>   25.1110    0.0000 </r>
       <r>   25.5121    0.0000 </r>
       <r>   25.7265    0.0000 </r>
       <r>   25.9178    0.0000 </r>
      </set>
      <set comment="kpoint 5">
       <r>  -16.7882    1.0000 </r>
       <r>  -16.1665    1.0000 </r>
       <r>  -15.7903    1.0000 </r>
       <r>  -15.6719    1.0000 </r>
       <r>  -14.3063    1.0000 </r>
       <r>  -14.2035    1.0000 </r>
       <r>   -4.4185    1.0000 </r>
       <r>   -3.7504    1.0000 </r>
       <r>   -3.4098    1.0000 </r>
       <r>   -3.2450    1.0000 </r>
       <r>   -2.6915    1.0000 </r>
       <r>   -2.3488    1.0000 </r>
       <r>   -1.8939    1.0000 </r>
       <r>   -1.4138    1.0000 </r>
       <r>   -1.2493    1.0000 </r>
       <r>   -1.0615    1.0000 </r>
       <r>   -0.8859    1.0000 </r>
       <r>   -0.4710    1.0000 </r>
       <r>    0.0393    1.0000 </r>
       <r>    0.2367    1.0000 </r>
       <r>    0.7817    1.0000 </r>
       <r>    1.0792    1.0000 </r>
       <r>    1.2692    1.0000 </r>
       <r>    1.3345    1.0000 </r>
       <r>    7.5238    0.0000 </r>
       <r>    9.1908    0.0000 </r>
       <r>    9.4425    0.0000 </r>
       <r>   10.2895    0.0000 </r>
       <r>   10.5485    0.0000 </r>
       <r>   11.0535    0.0000 </r>
       <r>   11.3830    0.0000 </r>
       <r>   11.8713    0.0000 </r>
       <r>   12.4346    0.0000 </r>
       <r>   12.8389    0.0000 </r>
       <r>   13.0820    0.0000 </r>
       <r>   13.2639    0.0000 </r>
       <r>   13.5691    0.0000 </r>
       <r>   13.9165    0.0000 </r>
       <r>   14.3815    0.0000 </r>
       <r>   14.5620    0.0000 </r>
       <r>   15.3973    0.0000 </r>
       <r>   15.6254    0.0000 </r>
       <r>   16.7385    0.0000 </r>
       <r>   17.0488    0.0000 </r>
       <r>   17.4893    0.0000 </r>
       <r>   17.7360    0.0000 </r>
       <r>   18.1256    0.0000 </r>
       <r>   18.6320    0.0000 </r>
       <r>   19.0697    0.0000 </r>
       <r>   19.2577    0.0000 </r>
       <r>   19.5878    0.0000 </r>
       <r>   19.8360    0.0000 </r>
       <r>   20.9098    0.0000 </r>
       <r>   21.1735    0.0000 </r>
       <r>   22.1965    0.0000 </r>
       <r>   22.4510    0.0000 </r>
       <r>   22.8466    0.0000 </r>
       <r>   23.3714    0.0000 </r>
       <r>   24.1550    0.0000 </r>
       <r>   24.8621    0.0000 </r>
       <r>   24.9266    0.0000 </r>
       <r>   24.9680    0.0000 </r>
       <r>   25.7213    0.0000 </r>
       <r>   26.1343    0.0000 </r>
      </set>
      <set comment="kpoint 6">
       <r>  -16.9225    1.0000 </r>
       <r>  -15.8911    1.0000 </r>
       <r>  -15.8409    1.0000 </r>
       <r>  -15.7521    1.0000 </r>
       <r>  -14.2779    1.0000 </r>
       <r>  -14.2015    1.0000 </r>
       <r>   -4.5514    1.0000 </r>
       <r>   -3.9973    1.0000 </r>
       <r>   -3.9726    1.0000 </r>
       <r>   -2.8355    1.0000 </r>
       <r>   -2.6502    1.0000 </r>
       <r>   -2.3017    1.0000 </r>
       <r>   -1.6336    1.0000 </r>
       <r>   -1.5621    1.0000 </r>
       <r>   -1.2704    1.0000 </r>
       <r>   -0.9376    1.0000 </r>
       <r>   -0.6769    1.0000 </r>
       <r>   -0.4003    1.0000 </r>
       <r>    0.2071    1.0000 </r>
       <r>    0.2327    1.0000 </r>
       <r>    0.8801    1.0000 </r>
       <r>    0.9944    1.0000 </r>
       <r>    1.3380    1.0000 </r>
       <r>    1.4463    1.0000 </r>
       <r>    6.4295    0.0000 </r>
       <r>    9.7956    0.0000 </r>
       <r>    9.8064    0.0000 </r>
       <r>   10.3953    0.0000 </r>
       <r>   10.6794    0.0000 </r>
       <r>   10.8574    0.0000 </r>
       <r>   11.3318    0.0000 </r>
       <r>   11.7097    0.0000 </r>
       <r>   12.0021    0.0000 </r>
       <r>   12.3308    0.0000 </r>
       <r>   12.6068    0.0000 </r>
       <r>   13.3591    0.0000 </r>
       <r>   13.4082    0.0000 </r>
       <r>   13.8916    0.0000 </r>
       <r>   14.3499    0.0000 </r>
       <r>   14.9649    0.0000 </r>
       <r>   15.6974    0.0000 </r>
       <r>   15.9931    0.0000 </r>
       <r>   16.7067    0.0000 </r>
       <r>   16.9970    0.0000 </r>
       <r>   17.5836    0.0000 </r>
       <r>   18.0114    0.0000 </r>
       <r>   18.3571    0.0000 </r>
       <r>   18.7018    0.0000 </r>
       <r>   19.0672    0.0000 </r>
       <r>   19.2622    0.0000 </r>
       <r>   20.1071    0.0000 </r>
       <r>   20.2225    0.0000 </r>
       <r>   21.2475    0.0000 </r>
       <r>   21.3001    0.0000 </r>
       <r>   22.6331    0.0000 </r>
       <r>   22.7456    0.0000 </r>
       <r>   23.2004    0.0000 </r>
       <r>   23.5760    0.0000 </r>
       <r>   23.6962    0.0000 </r>
       <r>   24.0786    0.0000 </r>
       <r>   24.3774    0.0000 </r>
       <r>   25.4315    0.0000 </r>
       <r>   25.6369    0.0000 </r>
       <r>   26.0910    0.0000 </r>
      </set>
      <set comment="kpoint 7">
       <r>  -16.8835    1.0000 </r>
       <r>  -15.9060    1.0000 </r>
       <r>  -15.8308    1.0000 </r>
       <r>  -15.7617    1.0000 </r>
       <r>  -14.3379    1.0000 </r>
       <r>  -14.2048    1.0000 </r>
       <r>   -4.5663    1.0000 </r>
       <r>   -3.8349    1.0000 </r>
       <r>   -3.7520    1.0000 </r>
       <r>   -2.7005    1.0000 </r>
       <r>   -2.4637    1.0000 </r>
       <r>   -2.1510    1.0000 </r>
       <r>   -1.8267    1.0000 </r>
       <r>   -1.8160    1.0000 </r>
       <r>   -1.2672    1.0000 </r>
       <r>   -1.1877    1.0000 </r>
       <r>   -0.9077    1.0000 </r>
       <r>   -0.5937    1.0000 </r>
       <r>    0.3981    1.0000 </r>
       <r>    0.4200    1.0000 </r>
       <r>    0.6497    1.0000 </r>
       <r>    0.9351    1.0000 </r>
       <r>    1.3282    1.0000 </r>
       <r>    1.3361    1.0000 </r>
       <r>    7.5202    0.0000 </r>
       <r>    8.6309    0.0000 </r>
       <r>   10.1406    0.0000 </r>
       <r>   10.3295    0.0000 </r>
       <r>   10.4185    0.0000 </r>
       <r>   10.9532    0.0000 </r>
       <r>   10.9839    0.0000 </r>
       <r>   12.0205    0.0000 </r>
       <r>   12.1672    0.0000 </r>
       <r>   12.5594    0.0000 </r>
       <r>   12.9825    0.0000 </r>
       <r>   13.6196    0.0000 </r>
       <r>   13.8163    0.0000 </r>
       <r>   13.8461    0.0000 </r>
       <r>   14.3475    0.0000 </r>
       <r>   15.1722    0.0000 </r>
       <r>   15.1935    0.0000 </r>
       <r>   15.9792    0.0000 </r>
       <r>   16.8704    0.0000 </r>
       <r>   16.9656    0.0000 </r>
       <r>   17.5990    0.0000 </r>
       <r>   17.9663    0.0000 </r>
       <r>   18.0355    0.0000 </r>
       <r>   18.2602    0.0000 </r>
       <r>   18.6653    0.0000 </r>
       <r>   19.0971    0.0000 </r>
       <r>   19.5324    0.0000 </r>
       <r>   19.8126    0.0000 </r>
       <r>   21.2312    0.0000 </r>
       <r>   21.4783    0.0000 </r>
       <r>   21.8650    0.0000 </r>
       <r>   22.7549    0.0000 </r>
       <r>   22.9127    0.0000 </r>
       <r>   22.9491    0.0000 </r>
       <r>   24.1945    0.0000 </r>
       <r>   24.5122    0.0000 </r>
       <r>   24.5696    0.0000 </r>
       <r>   25.0785    0.0000 </r>
       <r>   25.7172    0.0000 </r>
       <r>   26.2856    0.0000 </r>
      </set>
      <set comment="kpoint 8">
       <r>  -16.8676    1.0000 </r>
       <r>  -15.9750    1.0000 </r>
       <r>  -15.8615    1.0000 </r>
       <r>  -15.7522    1.0000 </r>
       <r>  -14.2133    1.0000 </r>
       <r>  -14.1960    1.0000 </r>
       <r>   -4.4505    1.0000 </r>
       <r>   -4.4080    1.0000 </r>
       <r>   -4.1760    1.0000 </r>
       <r>   -2.7725    1.0000 </r>
       <r>   -2.3974    1.0000 </r>
       <r>   -2.2344    1.0000 </r>
       <r>   -1.5948    1.0000 </r>
       <r>   -1.4545    1.0000 </r>
       <r>   -1.3233    1.0000 </r>
       <r>   -1.2674    1.0000 </r>
       <r>   -0.0879    1.0000 </r>
       <r>   -0.0761    1.0000 </r>
       <r>   -0.0485    1.0000 </r>
       <r>    0.0019    1.0000 </r>
       <r>    0.8718    1.0000 </r>
       <r>    1.0668    1.0000 </r>
       <r>    1.4387    1.0000 </r>
       <r>    1.4746    1.0000 </r>
       <r>    6.2524    0.0000 </r>
       <r>    9.8390    0.0000 </r>
       <r>   10.1519    0.0000 </r>
       <r>   10.2852    0.0000 </r>
       <r>   10.5129    0.0000 </r>
       <r>   10.8779    0.0000 </r>
       <r>   11.0370    0.0000 </r>
       <r>   11.4497    0.0000 </r>
       <r>   11.7190    0.0000 </r>
       <r>   12.0197    0.0000 </r>
       <r>   12.6767    0.0000 </r>
       <r>   13.0694    0.0000 </r>
       <r>   13.6873    0.0000 </r>
       <r>   14.3746    0.0000 </r>
       <r>   14.4619    0.0000 </r>
       <r>   15.0604    0.0000 </r>
       <r>   15.7316    0.0000 </r>
       <r>   15.9472    0.0000 </r>
       <r>   16.1443    0.0000 </r>
       <r>   16.7374    0.0000 </r>
       <r>   17.5430    0.0000 </r>
       <r>   17.7521    0.0000 </r>
       <r>   18.3399    0.0000 </r>
       <r>   19.6215    0.0000 </r>
       <r>   19.6705    0.0000 </r>
       <r>   20.3042    0.0000 </r>
       <r>   20.3914    0.0000 </r>
       <r>   20.9377    0.0000 </r>
       <r>   21.2138    0.0000 </r>
       <r>   21.9029    0.0000 </r>
       <r>   22.0011    0.0000 </r>
       <r>   22.9941    0.0000 </r>
       <r>   23.1985    0.0000 </r>
       <r>   23.4131    0.0000 </r>
       <r>   23.4797    0.0000 </r>
       <r>   24.3147    0.0000 </r>
       <r>   24.6289    0.0000 </r>
       <r>   25.0712    0.0000 </r>
       <r>   25.2710    0.0000 </r>
       <r>   25.5248    0.0000 </r>
      </set>
      <set comment="kpoint 9">
       <r>  -16.7527    1.0000 </r>
       <r>  -16.0888    1.0000 </r>
       <r>  -15.9165    1.0000 </r>
       <r>  -15.7104    1.0000 </r>
       <r>  -14.2301    1.0000 </r>
       <r>  -14.2111    1.0000 </r>
       <r>   -4.3545    1.0000 </r>
       <r>   -4.1106    1.0000 </r>
       <r>   -3.9148    1.0000 </r>
       <r>   -2.8435    1.0000 </r>
       <r>   -2.5620    1.0000 </r>
       <r>   -2.2161    1.0000 </r>
       <r>   -1.9205    1.0000 </r>
       <r>   -1.3986    1.0000 </r>
       <r>   -1.3030    1.0000 </r>
       <r>   -1.1563    1.0000 </r>
       <r>   -0.3839    1.0000 </r>
       <r>   -0.2497    1.0000 </r>
       <r>   -0.1727    1.0000 </r>
       <r>   -0.0283    1.0000 </r>
       <r>    0.9201    1.0000 </r>
       <r>    1.1222    1.0000 </r>
       <r>    1.2906    1.0000 </r>
       <r>    1.4809    1.0000 </r>
       <r>    6.9185    0.0000 </r>
       <r>    9.5215    0.0000 </r>
       <r>    9.9656    0.0000 </r>
       <r>   10.3638    0.0000 </r>
       <r>   10.6231    0.0000 </r>
       <r>   10.7495    0.0000 </r>
       <r>   11.0528    0.0000 </r>
       <r>   11.4447    0.0000 </r>
       <r>   12.2221    0.0000 </r>
       <r>   12.3199    0.0000 </r>
       <r>   12.9701    0.0000 </r>
       <r>   13.2755    0.0000 </r>
       <r>   13.6952    0.0000 </r>
       <r>   14.0754    0.0000 </r>
       <r>   14.5250    0.0000 </r>
       <r>   15.0074    0.0000 </r>
       <r>   15.4439    0.0000 </r>
       <r>   15.6067    0.0000 </r>
       <r>   16.3121    0.0000 </r>
       <r>   16.7574    0.0000 </r>
       <r>   17.4567    0.0000 </r>
       <r>   17.8235    0.0000 </r>
       <r>   18.5474    0.0000 </r>
       <r>   18.9368    0.0000 </r>
       <r>   19.3425    0.0000 </r>
       <r>   19.7422    0.0000 </r>
       <r>   20.1461    0.0000 </r>
       <r>   20.4913    0.0000 </r>
       <r>   21.2428    0.0000 </r>
       <r>   21.5801    0.0000 </r>
       <r>   22.0362    0.0000 </r>
       <r>   22.4809    0.0000 </r>
       <r>   23.0041    0.0000 </r>
       <r>   23.4234    0.0000 </r>
       <r>   24.0559    0.0000 </r>
       <r>   24.3548    0.0000 </r>
       <r>   24.5232    0.0000 </r>
       <r>   25.0064    0.0000 </r>
       <r>   25.5606    0.0000 </r>
       <r>   25.7097    0.0000 </r>
      </set>
      <set comment="kpoint 10">
       <r>  -16.4721    1.0000 </r>
       <r>  -16.4305    1.0000 </r>
       <r>  -15.7942    1.0000 </r>
       <r>  -15.7840    1.0000 </r>
       <r>  -14.2453    1.0000 </r>
       <r>  -14.2274    1.0000 </r>
       <r>   -4.1053    1.0000 </r>
       <r>   -3.9634    1.0000 </r>
       <r>   -3.2465    1.0000 </r>
       <r>   -3.0517    1.0000 </r>
       <r>   -2.7509    1.0000 </r>
       <r>   -2.7426    1.0000 </r>
       <r>   -1.7334    1.0000 </r>
       <r>   -1.6225    1.0000 </r>
       <r>   -1.1513    1.0000 </r>
       <r>   -1.1011    1.0000 </r>
       <r>   -0.5766    1.0000 </r>
       <r>   -0.5060    1.0000 </r>
       <r>   -0.2496    1.0000 </r>
       <r>   -0.1169    1.0000 </r>
       <r>    0.9982    1.0000 </r>
       <r>    1.1061    1.0000 </r>
       <r>    1.3358    1.0000 </r>
       <r>    1.3414    1.0000 </r>
       <r>    8.1138    0.0000 </r>
       <r>    8.5078    0.0000 </r>
       <r>    9.8792    0.0000 </r>
       <r>   10.2914    0.0000 </r>
       <r>   10.8103    0.0000 </r>
       <r>   10.8334    0.0000 </r>
       <r>   11.2980    0.0000 </r>
       <r>   11.4017    0.0000 </r>
       <r>   12.6202    0.0000 </r>
       <r>   12.7670    0.0000 </r>
       <r>   13.2431    0.0000 </r>
       <r>   13.5281    0.0000 </r>
       <r>   13.7171    0.0000 </r>
       <r>   13.7706    0.0000 </r>
       <r>   14.1428    0.0000 </r>
       <r>   14.5327    0.0000 </r>
       <r>   15.2555    0.0000 </r>
       <r>   15.7600    0.0000 </r>
       <r>   16.2360    0.0000 </r>
       <r>   16.9522    0.0000 </r>
       <r>   17.5542    0.0000 </r>
       <r>   17.6827    0.0000 </r>
       <r>   18.2432    0.0000 </r>
       <r>   18.3634    0.0000 </r>
       <r>   19.5002    0.0000 </r>
       <r>   19.6139    0.0000 </r>
       <r>   20.2260    0.0000 </r>
       <r>   20.4729    0.0000 </r>
       <r>   21.0622    0.0000 </r>
       <r>   21.3939    0.0000 </r>
       <r>   21.8394    0.0000 </r>
       <r>   22.0125    0.0000 </r>
       <r>   22.8645    0.0000 </r>
       <r>   23.0262    0.0000 </r>
       <r>   23.4918    0.0000 </r>
       <r>   23.7163    0.0000 </r>
       <r>   24.7054    0.0000 </r>
       <r>   24.7065    0.0000 </r>
       <r>   25.8336    0.0000 </r>
       <r>   26.0556    0.0000 </r>
      </set>
      <set comment="kpoint 11">
       <r>  -16.4809    1.0000 </r>
       <r>  -16.4211    1.0000 </r>
       <r>  -15.7974    1.0000 </r>
       <r>  -15.7810    1.0000 </r>
       <r>  -14.2682    1.0000 </r>
       <r>  -14.2050    1.0000 </r>
       <r>   -4.1666    1.0000 </r>
       <r>   -3.8725    1.0000 </r>
       <r>   -3.2630    1.0000 </r>
       <r>   -2.9398    1.0000 </r>
       <r>   -2.8882    1.0000 </r>
       <r>   -2.7478    1.0000 </r>
       <r>   -1.7392    1.0000 </r>
       <r>   -1.6307    1.0000 </r>
       <r>   -1.1925    1.0000 </r>
       <r>   -1.0268    1.0000 </r>
       <r>   -0.8147    1.0000 </r>
       <r>   -0.3470    1.0000 </r>
       <r>   -0.1823    1.0000 </r>
       <r>    0.0280    1.0000 </r>
       <r>    0.8508    1.0000 </r>
       <r>    1.0967    1.0000 </r>
       <r>    1.2781    1.0000 </r>
       <r>    1.4168    1.0000 </r>
       <r>    7.9494    0.0000 </r>
       <r>    8.9023    0.0000 </r>
       <r>    9.5547    0.0000 </r>
       <r>   10.4569    0.0000 </r>
       <r>   10.5163    0.0000 </r>
       <r>   10.9307    0.0000 </r>
       <r>   11.0829    0.0000 </r>
       <r>   12.0045    0.0000 </r>
       <r>   12.3373    0.0000 </r>
       <r>   12.7309    0.0000 </r>
       <r>   13.1674    0.0000 </r>
       <r>   13.5872    0.0000 </r>
       <r>   13.7356    0.0000 </r>
       <r>   13.8290    0.0000 </r>
       <r>   14.3058    0.0000 </r>
       <r>   14.5040    0.0000 </r>
       <r>   15.1647    0.0000 </r>
       <r>   16.0607    0.0000 </r>
       <r>   16.3055    0.0000 </r>
       <r>   16.7267    0.0000 </r>
       <r>   17.1306    0.0000 </r>
       <r>   17.5215    0.0000 </r>
       <r>   18.0877    0.0000 </r>
       <r>   19.0263    0.0000 </r>
       <r>   19.2178    0.0000 </r>
       <r>   19.8388    0.0000 </r>
       <r>   19.9057    0.0000 </r>
       <r>   20.4799    0.0000 </r>
       <r>   20.8006    0.0000 </r>
       <r>   21.6443    0.0000 </r>
       <r>   22.0319    0.0000 </r>
       <r>   22.1922    0.0000 </r>
       <r>   22.8614    0.0000 </r>
       <r>   22.8828    0.0000 </r>
       <r>   23.7988    0.0000 </r>
       <r>   23.9149    0.0000 </r>
       <r>   24.8350    0.0000 </r>
       <r>   25.0537    0.0000 </r>
       <r>   25.4739    0.0000 </r>
       <r>   25.5633    0.0000 </r>
      </set>
      <set comment="kpoint 12">
       <r>  -16.7037    1.0000 </r>
       <r>  -16.1188    1.0000 </r>
       <r>  -15.8985    1.0000 </r>
       <r>  -15.7179    1.0000 </r>
       <r>  -14.2974    1.0000 </r>
       <r>  -14.2139    1.0000 </r>
       <r>   -4.2312    1.0000 </r>
       <r>   -4.0434    1.0000 </r>
       <r>   -3.6585    1.0000 </r>
       <r>   -2.7803    1.0000 </r>
       <r>   -2.5958    1.0000 </r>
       <r>   -2.3383    1.0000 </r>
       <r>   -1.9275    1.0000 </r>
       <r>   -1.4139    1.0000 </r>
       <r>   -1.2221    1.0000 </r>
       <r>   -1.1368    1.0000 </r>
       <r>   -0.8800    1.0000 </r>
       <r>   -0.5312    1.0000 </r>
       <r>   -0.0291    1.0000 </r>
       <r>    0.1739    1.0000 </r>
       <r>    0.8554    1.0000 </r>
       <r>    1.0755    1.0000 </r>
       <r>    1.2494    1.0000 </r>
       <r>    1.3638    1.0000 </r>
       <r>    7.8233    0.0000 </r>
       <r>    9.2205    0.0000 </r>
       <r>    9.4831    0.0000 </r>
       <r>   10.1385    0.0000 </r>
       <r>   10.4062    0.0000 </r>
       <r>   10.9477    0.0000 </r>
       <r>   11.0686    0.0000 </r>
       <r>   11.6805    0.0000 </r>
       <r>   12.5015    0.0000 </r>
       <r>   12.7149    0.0000 </r>
       <r>   13.1668    0.0000 </r>
       <r>   13.4976    0.0000 </r>
       <r>   13.7843    0.0000 </r>
       <r>   13.9346    0.0000 </r>
       <r>   14.4603    0.0000 </r>
       <r>   14.6665    0.0000 </r>
       <r>   15.3026    0.0000 </r>
       <r>   15.6043    0.0000 </r>
       <r>   16.6904    0.0000 </r>
       <r>   17.1299    0.0000 </r>
       <r>   17.5035    0.0000 </r>
       <r>   17.6553    0.0000 </r>
       <r>   18.1932    0.0000 </r>
       <r>   18.2842    0.0000 </r>
       <r>   19.0156    0.0000 </r>
       <r>   19.4600    0.0000 </r>
       <r>   19.8312    0.0000 </r>
       <r>   20.0723    0.0000 </r>
       <r>   21.0579    0.0000 </r>
       <r>   21.3238    0.0000 </r>
       <r>   22.1065    0.0000 </r>
       <r>   22.5672    0.0000 </r>
       <r>   22.7698    0.0000 </r>
       <r>   23.3733    0.0000 </r>
       <r>   23.6292    0.0000 </r>
       <r>   24.0593    0.0000 </r>
       <r>   25.0117    0.0000 </r>
       <r>   25.1729    0.0000 </r>
       <r>   25.5941    0.0000 </r>
       <r>   25.9695    0.0000 </r>
      </set>
      <set comment="kpoint 13">
       <r>  -16.8324    1.0000 </r>
       <r>  -15.9608    1.0000 </r>
       <r>  -15.8733    1.0000 </r>
       <r>  -15.7605    1.0000 </r>
       <r>  -14.2707    1.0000 </r>
       <r>  -14.2084    1.0000 </r>
       <r>   -4.3962    1.0000 </r>
       <r>   -4.2077    1.0000 </r>
       <r>   -4.1201    1.0000 </r>
       <r>   -2.6827    1.0000 </r>
       <r>   -2.2813    1.0000 </r>
       <r>   -2.2539    1.0000 </r>
       <r>   -1.6694    1.0000 </r>
       <r>   -1.4879    1.0000 </r>
       <r>   -1.3812    1.0000 </r>
       <r>   -1.1859    1.0000 </r>
       <r>   -0.6007    1.0000 </r>
       <r>   -0.4175    1.0000 </r>
       <r>    0.1178    1.0000 </r>
       <r>    0.1260    1.0000 </r>
       <r>    0.9944    1.0000 </r>
       <r>    1.0153    1.0000 </r>
       <r>    1.3106    1.0000 </r>
       <r>    1.3946    1.0000 </r>
       <r>    6.8776    0.0000 </r>
       <r>    9.7164    0.0000 </r>
       <r>    9.8449    0.0000 </r>
       <r>   10.2685    0.0000 </r>
       <r>   10.4503    0.0000 </r>
       <r>   10.5893    0.0000 </r>
       <r>   11.1479    0.0000 </r>
       <r>   11.2559    0.0000 </r>
       <r>   12.3388    0.0000 </r>
       <r>   12.4033    0.0000 </r>
       <r>   12.7551    0.0000 </r>
       <r>   13.5025    0.0000 </r>
       <r>   13.6396    0.0000 </r>
       <r>   14.1798    0.0000 </r>
       <r>   14.3755    0.0000 </r>
       <r>   14.9629    0.0000 </r>
       <r>   15.4999    0.0000 </r>
       <r>   15.7905    0.0000 </r>
       <r>   16.6403    0.0000 </r>
       <r>   17.2139    0.0000 </r>
       <r>   17.3165    0.0000 </r>
       <r>   18.0606    0.0000 </r>
       <r>   18.1570    0.0000 </r>
       <r>   18.9292    0.0000 </r>
       <r>   19.0707    0.0000 </r>
       <r>   19.3328    0.0000 </r>
       <r>   20.0981    0.0000 </r>
       <r>   20.3883    0.0000 </r>
       <r>   21.3141    0.0000 </r>
       <r>   21.9147    0.0000 </r>
       <r>   22.1294    0.0000 </r>
       <r>   22.5847    0.0000 </r>
       <r>   22.8407    0.0000 </r>
       <r>   23.5843    0.0000 </r>
       <r>   23.6472    0.0000 </r>
       <r>   24.3373    0.0000 </r>
       <r>   24.6130    0.0000 </r>
       <r>   25.1486    0.0000 </r>
       <r>   25.5025    0.0000 </r>
       <r>   25.8265    0.0000 </r>
      </set>
      <set comment="kpoint 14">
       <r>  -16.7951    1.0000 </r>
       <r>  -15.9460    1.0000 </r>
       <r>  -15.8864    1.0000 </r>
       <r>  -15.7694    1.0000 </r>
       <r>  -14.3285    1.0000 </r>
       <r>  -14.2210    1.0000 </r>
       <r>   -4.2950    1.0000 </r>
       <r>   -4.1088    1.0000 </r>
       <r>   -4.0040    1.0000 </r>
       <r>   -2.3341    1.0000 </r>
       <r>   -2.2743    1.0000 </r>
       <r>   -2.1860    1.0000 </r>
       <r>   -1.9078    1.0000 </r>
       <r>   -1.7490    1.0000 </r>
       <r>   -1.2776    1.0000 </r>
       <r>   -1.0917    1.0000 </r>
       <r>   -1.0289    1.0000 </r>
       <r>   -0.6908    1.0000 </r>
       <r>    0.3138    1.0000 </r>
       <r>    0.3537    1.0000 </r>
       <r>    0.6871    1.0000 </r>
       <r>    0.9837    1.0000 </r>
       <r>    1.2952    1.0000 </r>
       <r>    1.3157    1.0000 </r>
       <r>    7.8686    0.0000 </r>
       <r>    8.8188    0.0000 </r>
       <r>   10.0208    0.0000 </r>
       <r>   10.0568    0.0000 </r>
       <r>   10.3737    0.0000 </r>
       <r>   10.5947    0.0000 </r>
       <r>   11.0603    0.0000 </r>
       <r>   11.8193    0.0000 </r>
       <r>   12.0442    0.0000 </r>
       <r>   12.5599    0.0000 </r>
       <r>   13.1955    0.0000 </r>
       <r>   13.7824    0.0000 </r>
       <r>   13.8142    0.0000 </r>
       <r>   14.1163    0.0000 </r>
       <r>   14.3418    0.0000 </r>
       <r>   14.9959    0.0000 </r>
       <r>   15.1953    0.0000 </r>
       <r>   15.9503    0.0000 </r>
       <r>   16.8255    0.0000 </r>
       <r>   16.8737    0.0000 </r>
       <r>   17.3414    0.0000 </r>
       <r>   17.9468    0.0000 </r>
       <r>   18.0894    0.0000 </r>
       <r>   18.1087    0.0000 </r>
       <r>   19.1329    0.0000 </r>
       <r>   19.5639    0.0000 </r>
       <r>   19.7564    0.0000 </r>
       <r>   20.0592    0.0000 </r>
       <r>   20.7664    0.0000 </r>
       <r>   21.7824    0.0000 </r>
       <r>   22.1409    0.0000 </r>
       <r>   22.5936    0.0000 </r>
       <r>   22.6209    0.0000 </r>
       <r>   22.9003    0.0000 </r>
       <r>   23.3833    0.0000 </r>
       <r>   24.1606    0.0000 </r>
       <r>   24.7923    0.0000 </r>
       <r>   25.5565    0.0000 </r>
       <r>   25.7196    0.0000 </r>
       <r>   25.7745    0.0000 </r>
      </set>
      <set comment="kpoint 15">
       <r>  -16.6162    1.0000 </r>
       <r>  -16.2777    1.0000 </r>
       <r>  -15.8221    1.0000 </r>
       <r>  -15.7802    1.0000 </r>
       <r>  -14.2030    1.0000 </r>
       <r>  -14.1956    1.0000 </r>
       <r>   -4.7125    1.0000 </r>
       <r>   -4.6845    1.0000 </r>
       <r>   -3.3749    1.0000 </r>
       <r>   -2.4588    1.0000 </r>
       <r>   -2.4309    1.0000 </r>
       <r>   -2.0561    1.0000 </r>
       <r>   -1.9309    1.0000 </r>
       <r>   -1.8291    1.0000 </r>
       <r>   -1.3987    1.0000 </r>
       <r>   -1.1592    1.0000 </r>
       <r>   -0.1671    1.0000 </r>
       <r>   -0.1643    1.0000 </r>
       <r>   -0.0586    1.0000 </r>
       <r>   -0.0332    1.0000 </r>
       <r>    1.0674    1.0000 </r>
       <r>    1.0953    1.0000 </r>
       <r>    1.3975    1.0000 </r>
       <r>    1.4036    1.0000 </r>
       <r>    7.4471    0.0000 </r>
       <r>    8.7716    0.0000 </r>
       <r>    9.6170    0.0000 </r>
       <r>    9.7877    0.0000 </r>
       <r>   10.4764    0.0000 </r>
       <r>   10.7494    0.0000 </r>
       <r>   11.0290    0.0000 </r>
       <r>   11.4935    0.0000 </r>
       <r>   12.0352    0.0000 </r>
       <r>   12.2769    0.0000 </r>
       <r>   13.5405    0.0000 </r>
       <r>   13.6135    0.0000 </r>
       <r>   13.8627    0.0000 </r>
       <r>   14.1088    0.0000 </r>
       <r>   14.4874    0.0000 </r>
       <r>   14.8535    0.0000 </r>
       <r>   15.1970    0.0000 </r>
       <r>   15.4792    0.0000 </r>
       <r>   16.2980    0.0000 </r>
       <r>   17.0307    0.0000 </r>
       <r>   17.3652    0.0000 </r>
       <r>   17.4795    0.0000 </r>
[...]
        <r>  0.0108  0.0122  0.0103  0.0035  0.0000  0.0000  0.0000  0.0000  0.0000 </r>
        <r>  0.0108  0.0122  0.0103  0.0035  0.0000  0.0000  0.0000  0.0000  0.0000 </r>
        <r>  0.0108  0.0122  0.0103  0.0035  0.0000  0.0000  0.0000  0.0000  0.0000 </r>
        <r>  0.0014  0.0000  0.0105  0.0053  0.0000  0.0000  0.0000  0.0000  0.0000 </r>
        <r>  0.0007  0.0101  0.0054  0.0089  0.0000  0.0000  0.0000  0.0000  0.0000 </r>
        <r>  0.0007  0.0101  0.0054  0.0089  0.0000  0.0000  0.0000  0.0000  0.0000 </r>
        <r>  0.0007  0.0101  0.0054  0.0089  0.0000  0.0000  0.0000  0.0000  0.0000 </r>
        <r>  0.0007  0.0101  0.0054  0.0089  0.0000  0.0000  0.0000  0.0000  0.0000 </r>
        <r>  0.0014  0.0000  0.0105  0.0053  0.0000  0.0000  0.0000  0.0000  0.0000 </r>
       </set>
       <set comment="band 46">
        <r>  0.0045  0.0038  0.0219  0.0093  0.0000  0.0000  0.0000  0.0000  0.0000 </r>
        <r>  0.0045  0.0038  0.0219  0.0093  0.0000  0.0000  0.0000  0.0000  0.0000 </r>
        <r>  0.0045  0.0038  0.0219  0.0093  0.0000  0.0000  0.0000  0.0000  0.0000 </r>
        <r>  0.0045  0.0038  0.0219  0.0093  0.0000  0.0000  0.0000  0.0000  0.0000 </r>
        <r>  0.0002  0.0000  0.0091  0.0121  0.0000  0.0000  0.0000  0.0000  0.0000 </r>
        <r>  0.0000  0.0147  0.0060  0.0009  0.0000  0.0000  0.0000  0.0000  0.0000 </r>
        <r>  0.0000  0.0147  0.0060  0.0009  0.0000  0.0000  0.0000  0.0000  0.0000 </r>
        <r>  0.0000  0.0147  0.0060  0.0009  0.0000  0.0000  0.0000  0.0000  0.0000 </r>
        <r>  0.0000  0.0147  0.0060  0.0009  0.0000  0.0000  0.0000  0.0000  0.0000 </r>
        <r>  0.0002  0.0000  0.0091  0.0121  0.0000  0.0000  0.0000  0.0000  0.0000 </r>
       </set>
       <set comment="band 47">
        <r>  0.0033  0.0094  0.0115  0.0211  0.0000  0.0000  0.0000  0.0000  0.0000 </r>
        <r>  0.0033  0.0094  0.0115  0.0211  0.0000  0.0000  0.0000  0.0000  0.0000 </r>
        <r>  0.0033  0.0094  0.0115  0.0211  0.0000  0.0000  0.0000  0.0000  0.0000 </r>
        <r>  0.0033  0.0094  0.0115  0.0211  0.0000  0.0000  0.0000  0.0000  0.0000 </r>
        <r>  0.0125  0.0000  0.0101  0.0113  0.0000  0.0000  0.0000  0.0000  0.0000 </r>
        <r>  0.0007  0.0002  0.0088  0.0052  0.0000  0.0000  0.0000  0.0000  0.0000 </r>
        <r>  0.0007  0.0002  0.0088  0.0052  0.0000  0.0000  0.0000  0.0000  0.0000 </r>
        <r>  0.0007  0.0002  0.0088  0.0052  0.0000  0.0000  0.0000  0.0000  0.0000 </r>
        <r>  0.0007  0.0002  0.0088  0.0052  0.0000  0.0000  0.0000  0.0000  0.0000 </r>
        <r>  0.0125  0.0000  0.0101  0.0113  0.0000  0.0000  0.0000  0.0000  0.0000 </r>
       </set>
       <set comment="band 48">
        <r>  0.0034  0.0035  0.0057  0.0175  0.0000  0.0000  0.0000  0.0000  0.0000 </r>
        <r>  0.0034  0.0035  0.0057  0.0175  0.0000  0.0000  0.0000  0.0000  0.0000 </r>
        <r>  0.0034  0.0035  0.0057  0.0175  0.0000  0.0000  0.0000  0.0000  0.0000 </r>
        <r>  0.0034  0.0035  0.0057  0.0175  0.0000  0.0000  0.0000  0.0000  0.0000 </r>
        <r>  0.0000  0.0001  0.0000  0.0000  0.0000  0.0000  0.0000  0.0000  0.0000 </r>
        <r>  0.0002  0.0089  0.0007  0.0012  0.0000  0.0000  0.0000  0.0000  0.0000 </r>
        <r>  0.0002  0.0089  0.0007  0.0012  0.0000  0.0000  0.0000  0.0000  0.0000 </r>
        <r>  0.0002  0.0089  0.0007  0.0012  0.0000  0.0000  0.0000  0.0000  0.0000 </r>
        <r>  0.0002  0.0089  0.0007  0.0012  0.0000  0.0000  0.0000  0.0000  0.0000 </r>
        <r>  0.0000  0.0001  0.0000  0.0000  0.0000  0.0000  0.0000  0.0000  0.0000 </r>
       </set>
       <set comment="band 49">
        <r>  0.0063  0.0112  0.0052  0.0133  0.0000  0.0000  0.0000  0.0000  0.0000 </r>
        <r>  0.0063  0.0112  0.0052  0.0133  0.0000  0.0000  0.0000  0.0000  0.0000 </r>
        <r>  0.0063  0.0112  0.0052  0.0133  0.0000  0.0000  0.0000  0.0000  0.0000 </r>
        <r>  0.0063  0.0112  0.0052  0.0133  0.0000  0.0000  0.0000  0.0000  0.0000 </r>
        <r>  0.0091  0.0000  0.0167  0.0008  0.0000  0.0000  0.0000  0.0000  0.0000 </r>
        <r>  0.0002  0.0007  0.0040  0.0021  0.0000  0.0000  0.0000  0.0000  0.0000 </r>
        <r>  0.0002  0.0007  0.0040  0.0021  0.0000  0.0000  0.0000  0.0000  0.0000 </r>
        <r>  0.0002  0.0007  0.0040  0.0021  0.0000  0.0000  0.0000  0.0000  0.0000 </r>
        <r>  0.0002  0.0007  0.0040  0.0021  0.0000  0.0000  0.0000  0.0000  0.0000 </r>
        <r>  0.0091  0.0000  0.0167  0.0008  0.0000  0.0000  0.0000  0.0000  0.0000 </r>
       </set>
       <set comment="band 50">
        <r>  0.0138  0.0051  0.0083  0.0217  0.0000  0.0000  0.0000  0.0000  0.0000 </r>
        <r>  0.0138  0.0051  0.0083  0.0217  0.0000  0.0000  0.0000  0.0000  0.0000 </r>
        <r>  0.0138  0.0051  0.0083  0.0216  0.0000  0.0000  0.0000  0.0000  0.0000 </r>
        <r>  0.0138  0.0051  0.0083  0.0217  0.0000  0.0000  0.0000  0.0000  0.0000 </r>
        <r>  0.0000  0.0022  0.0000  0.0000  0.0000  0.0000  0.0000  0.0000  0.0000 </r>
        <r>  0.0002  0.0004  0.0006  0.0030  0.0000  0.0000  0.0000  0.0000  0.0000 </r>
        <r>  0.0002  0.0004  0.0006  0.0030  0.0000  0.0000  0.0000  0.0000  0.0000 </r>
        <r>  0.0002  0.0004  0.0006  0.0030  0.0000  0.0000  0.0000  0.0000  0.0000 </r>
        <r>  0.0002  0.0004  0.0006  0.0030  0.0000  0.0000  0.0000  0.0000  0.0000 </r>
        <r>  0.0000  0.0022  0.0000  0.0000  0.0000  0.0000  0.0000  0.0000  0.0000 </r>
       </set>
       <set comment="band 51">
        <r>  0.0028  0.0038  0.0002  0.0082  0.0000  0.0000  0.0000  0.0000  0.0000 </r>
        <r>  0.0028  0.0038  0.0002  0.0082  0.0000  0.0000  0.0000  0.0000  0.0000 </r>
        <r>  0.0028  0.0038  0.0002  0.0082  0.0000  0.0000  0.0000  0.0000  0.0000 </r>
        <r>  0.0028  0.0038  0.0002  0.0082  0.0000  0.0000  0.0000  0.0000  0.0000 </r>
        <r>  0.0027  0.0000  0.0004  0.0174  0.0000  0.0000  0.0000  0.0000  0.0000 </r>
        <r>  0.0040  0.0044  0.0003  0.0065  0.0000  0.0000  0.0000  0.0000  0.0000 </r>
        <r>  0.0040  0.0044  0.0003  0.0065  0.0000  0.0000  0.0000  0.0000  0.0000 </r>
        <r>  0.0040  0.0044  0.0003  0.0065  0.0000  0.0000  0.0000  0.0000  0.0000 </r>
        <r>  0.0040  0.0044  0.0003  0.0065  0.0000  0.0000  0.0000  0.0000  0.0000 </r>
        <r>  0.0027  0.0000  0.0004  0.0174  0.0000  0.0000  0.0000  0.0000  0.0000 </r>
       </set>
       <set comment="band 52">
        <r>  0.0026  0.0075  0.0144  0.0033  0.0000  0.0000  0.0000  0.0000  0.0000 </r>
        <r>  0.0026  0.0075  0.0144  0.0033  0.0000  0.0000  0.0000  0.0000  0.0000 </r>
        <r>  0.0026  0.0075  0.0144  0.0033  0.0000  0.0000  0.0000  0.0000  0.0000 </r>
        <r>  0.0026  0.0075  0.0144  0.0033  0.0000  0.0000  0.0000  0.0000  0.0000 </r>
        <r>  0.0000  0.0017  0.0000  0.0000  0.0000  0.0000  0.0000  0.0000  0.0000 </r>
        <r>  0.0020  0.0035  0.0013  0.0031  0.0000  0.0000  0.0000  0.0000  0.0000 </r>
        <r>  0.0020  0.0035  0.0013  0.0031  0.0000  0.0000  0.0000  0.0000  0.0000 </r>
        <r>  0.0020  0.0035  0.0013  0.0031  0.0000  0.0000  0.0000  0.0000  0.0000 </r>
        <r>  0.0020  0.0035  0.0013  0.0031  0.0000  0.0000  0.0000  0.0000  0.0000 </r>
        <r>  0.0000  0.0017  0.0000  0.0000  0.0000  0.0000  0.0000  0.0000  0.0000 </r>
       </set>
       <set comment="band 53">
        <r>  0.0030  0.0072  0.0152  0.0161  0.0000  0.0000  0.0000  0.0000  0.0000 </r>
        <r>  0.0030  0.0072  0.0152  0.0161  0.0000  0.0000  0.0000  0.0000  0.0000 </r>
        <r>  0.0030  0.0072  0.0152  0.0161  0.0000  0.0000  0.0000  0.0000  0.0000 </r>
        <r>  0.0030  0.0072  0.0152  0.0161  0.0000  0.0000  0.0000  0.0000  0.0000 </r>
        <r>  0.0038  0.0000  0.0052  0.0019  0.0000  0.0000  0.0000  0.0000  0.0000 </r>
        <r>  0.0019  0.0026  0.0123  0.0004  0.0000  0.0000  0.0000  0.0000  0.0000 </r>
        <r>  0.0019  0.0026  0.0123  0.0004  0.0000  0.0000  0.0000  0.0000  0.0000 </r>
        <r>  0.0019  0.0026  0.0123  0.0004  0.0000  0.0000  0.0000  0.0000  0.0000 </r>
        <r>  0.0019  0.0026  0.0123  0.0004  0.0000  0.0000  0.0000  0.0000  0.0000 </r>
        <r>  0.0038  0.0000  0.0052  0.0019  0.0000  0.0000  0.0000  0.0000  0.0000 </r>
       </set>
       <set comment="band 54">
        <r>  0.0021  0.0014  0.0070  0.0077  0.0000  0.0000  0.0000  0.0000  0.0000 </r>
        <r>  0.0021  0.0014  0.0070  0.0077  0.0000  0.0000  0.0000  0.0000  0.0000 </r>
        <r>  0.0021  0.0014  0.0070  0.0077  0.0000  0.0000  0.0000  0.0000  0.0000 </r>
        <r>  0.0021  0.0014  0.0070  0.0077  0.0000  0.0000  0.0000  0.0000  0.0000 </r>
        <r>  0.0000  0.0001  0.0000  0.0000  0.0000  0.0000  0.0000  0.0000  0.0000 </r>
        <r>  0.0010  0.0049  0.0004  0.0072  0.0000  0.0000  0.0000  0.0000  0.0000 </r>
        <r>  0.0010  0.0049  0.0004  0.0072  0.0000  0.0000  0.0000  0.0000  0.0000 </r>
        <r>  0.0010  0.0049  0.0004  0.0072  0.0000  0.0000  0.0000  0.0000  0.0000 </r>
        <r>  0.0010  0.0049  0.0004  0.0072  0.0000  0.0000  0.0000  0.0000  0.0000 </r>
        <r>  0.0000  0.0001  0.0000  0.0000  0.0000  0.0000  0.0000  0.0000  0.0000 </r>
       </set>
       <set comment="band 55">
        <r>  0.0021  0.0006  0.0019  0.0191  0.0000  0.0000  0.0000  0.0000  0.0000 </r>
        <r>  0.0021  0.0006  0.0019  0.0191  0.0000  0.0000  0.0000  0.0000  0.0000 </r>
        <r>  0.0021  0.0006  0.0019  0.0191  0.0000  0.0000  0.0000  0.0000  0.0000 </r>
        <r>  0.0021  0.0006  0.0019  0.0191  0.0000  0.0000  0.0000  0.0000  0.0000 </r>
        <r>  0.0016  0.0000  0.0001  0.0109  0.0000  0.0000  0.0000  0.0000  0.0000 </r>
        <r>  0.0042  0.0018  0.0003  0.0087  0.0000  0.0000  0.0000  0.0000  0.0000 </r>
        <r>  0.0042  0.0018  0.0003  0.0087  0.0000  0.0000  0.0000  0.0000  0.0000 </r>
        <r>  0.0042  0.0018  0.0003  0.0087  0.0000  0.0000  0.0000  0.0000  0.0000 </r>
        <r>  0.0042  0.0018  0.0003  0.0087  0.0000  0.0000  0.0000  0.0000  0.0000 </r>
        <r>  0.0016  0.0000  0.0001  0.0109  0.0000  0.0000  0.0000  0.0000  0.0000 </r>
       </set>
       <set comment="band 56">
        <r>  0.0000  0.0024  0.0063  0.0151  0.0000  0.0000  0.0000  0.0000  0.0000 </r>
        <r>  0.0000  0.0024  0.0063  0.0151  0.0000  0.0000  0.0000  0.0000  0.0000 </r>
        <r>  0.0000  0.0024  0.0063  0.0151  0.0000  0.0000  0.0000  0.0000  0.0000 </r>
        <r>  0.0000  0.0024  0.0063  0.0151  0.0000  0.0000  0.0000  0.0000  0.0000 </r>
        <r>  0.0041  0.0000  0.0012  0.0010  0.0000  0.0000  0.0000  0.0000  0.0000 </r>
        <r>  0.0000  0.0005  0.0083  0.0013  0.0000  0.0000  0.0000  0.0000  0.0000 </r>
        <r>  0.0000  0.0005  0.0083  0.0013  0.0000  0.0000  0.0000  0.0000  0.0000 </r>
        <r>  0.0000  0.0005  0.0083  0.0013  0.0000  0.0000  0.0000  0.0000  0.0000 </r>
        <r>  0.0000  0.0005  0.0083  0.0013  0.0000  0.0000  0.0000  0.0000  0.0000 </r>
        <r>  0.0041  0.0000  0.0012  0.0010  0.0000  0.0000  0.0000  0.0000  0.0000 </r>
       </set>
       <set comment="band 57">
        <r>  0.0023  0.0013  0.0048  0.0123  0.0000  0.0000  0.0000  0.0000  0.0000 </r>
        <r>  0.0023  0.0013  0.0048  0.0123  0.0000  0.0000  0.0000  0.0000  0.0000 </r>
        <r>  0.0023  0.0013  0.0048  0.0123  0.0000  0.0000  0.0000  0.0000  0.0000 </r>
        <r>  0.0023  0.0013  0.0048  0.0123  0.0000  0.0000  0.0000  0.0000  0.0000 </r>
        <r>  0.0000  0.0001  0.0000  0.0000  0.0000  0.0000  0.0000  0.0000  0.0000 </r>
        <r>  0.0082  0.0007  0.0006  0.0048  0.0000  0.0000  0.0000  0.0000  0.0000 </r>
        <r>  0.0082  0.0007  0.0006  0.0048  0.0000  0.0000  0.0000  0.0000  0.0000 </r>
        <r>  0.0082  0.0007  0.0006  0.0048  0.0000  0.0000  0.0000  0.0000  0.0000 </r>
        <r>  0.0082  0.0007  0.0006  0.0048  0.0000  0.0000  0.0000  0.0000  0.0000 </r>
        <r>  0.0000  0.0001  0.0000  0.0000  0.0000  0.0000  0.0000  0.0000  0.0000 </r>
       </set>
       <set comment="band 58">
        <r>  0.0103  0.0006  0.0020  0.0109  0.0000  0.0000  0.0000  0.0000  0.0000 </r>
        <r>  0.0103  0.0006  0.0020  0.0109  0.0000  0.0000  0.0000  0.0000  0.0000 </r>
        <r>  0.0103  0.0006  0.0020  0.0109  0.0000  0.0000  0.0000  0.0000  0.0000 </r>
        <r>  0.0103  0.0006  0.0020  0.0109  0.0000  0.0000  0.0000  0.0000  0.0000 </r>
        <r>  0.0006  0.0000  0.0015  0.0010  0.0000  0.0000  0.0000  0.0000  0.0000 </r>
        <r>  0.0031  0.0020  0.0013  0.0002  0.0000  0.0000  0.0000  0.0000  0.0000 </r>
        <r>  0.0031  0.0020  0.0013  0.0002  0.0000  0.0000  0.0000  0.0000  0.0000 </r>
        <r>  0.0031  0.0020  0.0013  0.0002  0.0000  0.0000  0.0000  0.0000  0.0000 </r>
        <r>  0.0031  0.0020  0.0013  0.0002  0.0000  0.0000  0.0000  0.0000  0.0000 </r>
        <r>  0.0006  0.0000  0.0015  0.0010  0.0000  0.0000  0.0000  0.0000  0.0000 </r>
       </set>
       <set comment="band 59">
        <r>  0.0025  0.0075  0.0046  0.0017  0.0000  0.0000  0.0000  0.0000  0.0000 </r>
        <r>  0.0025  0.0075  0.0046  0.0017  0.0000  0.0000  0.0000  0.0000  0.0000 </r>
        <r>  0.0025  0.0075  0.0046  0.0017  0.0000  0.0000  0.0000  0.0000  0.0000 </r>
        <r>  0.0025  0.0075  0.0046  0.0017  0.0000  0.0000  0.0000  0.0000  0.0000 </r>
        <r>  0.0081  0.0000  0.0092  0.0007  0.0000  0.0000  0.0000  0.0000  0.0000 </r>
        <r>  0.0058  0.0009  0.0085  0.0068  0.0000  0.0000  0.0000  0.0000  0.0000 </r>
        <r>  0.0058  0.0009  0.0085  0.0068  0.0000  0.0000  0.0000  0.0000  0.0000 </r>
        <r>  0.0058  0.0009  0.0085  0.0068  0.0000  0.0000  0.0000  0.0000  0.0000 </r>
        <r>  0.0058  0.0009  0.0085  0.0068  0.0000  0.0000  0.0000  0.0000  0.0000 </r>
        <r>  0.0081  0.0000  0.0092  0.0007  0.0000  0.0000  0.0000  0.0000  0.0000 </r>
       </set>
       <set comment="band 60">
        <r>  0.0063  0.0039  0.0079  0.0048  0.0000  0.0000  0.0000  0.0000  0.0000 </r>
        <r>  0.0063  0.0039  0.0079  0.0048  0.0000  0.0000  0.0000  0.0000  0.0000 </r>
        <r>  0.0063  0.0039  0.0079  0.0048  0.0000  0.0000  0.0000  0.0000  0.0000 </r>
        <r>  0.0063  0.0039  0.0079  0.0048  0.0000  0.0000  0.0000  0.0000  0.0000 </r>
        <r>  0.0000  0.0031  0.0000  0.0000  0.0000  0.0000  0.0000  0.0000  0.0000 </r>
        <r>  0.0021  0.0019  0.0041  0.0043  0.0000  0.0000  0.0000  0.0000  0.0000 </r>
        <r>  0.0021  0.0019  0.0041  0.0043  0.0000  0.0000  0.0000  0.0000  0.0000 </r>
        <r>  0.0021  0.0019  0.0041  0.0043  0.0000  0.0000  0.0000  0.0000  0.0000 </r>
        <r>  0.0021  0.0019  0.0041  0.0043  0.0000  0.0000  0.0000  0.0000  0.0000 </r>
        <r>  0.0000  0.0031  0.0000  0.0000  0.0000  0.0000  0.0000  0.0000  0.0000 </r>
       </set>
       <set comment="band 61">
        <r>  0.0003  0.0046  0.0210  0.0051  0.0000  0.0000  0.0000  0.0000  0.0000 </r>
        <r>  0.0003  0.0046  0.0210  0.0051  0.0000  0.0000  0.0000  0.0000  0.0000 </r>
        <r>  0.0003  0.0046  0.0210  0.0051  0.0000  0.0000  0.0000  0.0000  0.0000 </r>
        <r>  0.0003  0.0046  0.0210  0.0051  0.0000  0.0000  0.0000  0.0000  0.0000 </r>
        <r>  0.0048  0.0000  0.0014  0.0012  0.0000  0.0000  0.0000  0.0000  0.0000 </r>
        <r>  0.0008  0.0009  0.0168  0.0097  0.0000  0.0000  0.0000  0.0000  0.0000 </r>
        <r>  0.0008  0.0009  0.0168  0.0097  0.0000  0.0000  0.0000  0.0000  0.0000 </r>
        <r>  0.0008  0.0009  0.0168  0.0097  0.0000  0.0000  0.0000  0.0000  0.0000 </r>
        <r>  0.0008  0.0009  0.0168  0.0097  0.0000  0.0000  0.0000  0.0000  0.0000 </r>
        <r>  0.0048  0.0000  0.0014  0.0012  0.0000  0.0000  0.0000  0.0000  0.0000 </r>
       </set>
       <set comment="band 62">
        <r>  0.0108  0.0061  0.0086  0.0056  0.0000  0.0000  0.0000  0.0000  0.0000 </r>
        <r>  0.0108  0.0061  0.0086  0.0056  0.0000  0.0000  0.0000  0.0000  0.0000 </r>
        <r>  0.0108  0.0061  0.0086  0.0056  0.0000  0.0000  0.0000  0.0000  0.0000 </r>
        <r>  0.0108  0.0061  0.0086  0.0056  0.0000  0.0000  0.0000  0.0000  0.0000 </r>
        <r>  0.0000  0.0018  0.0000  0.0000  0.0000  0.0000  0.0000  0.0000  0.0000 </r>
        <r>  0.0005  0.0034  0.0025  0.0057  0.0000  0.0000  0.0000  0.0000  0.0000 </r>
        <r>  0.0005  0.0034  0.0025  0.0057  0.0000  0.0000  0.0000  0.0000  0.0000 </r>
        <r>  0.0005  0.0034  0.0025  0.0057  0.0000  0.0000  0.0000  0.0000  0.0000 </r>
        <r>  0.0005  0.0034  0.0025  0.0057  0.0000  0.0000  0.0000  0.0000  0.0000 </r>
        <r>  0.0000  0.0018  0.0000  0.0000  0.0000  0.0000  0.0000  0.0000  0.0000 </r>
       </set>
       <set comment="band 63">
        <r>  0.0035  0.0014  0.0032  0.0020  0.0000  0.0000  0.0000  0.0000  0.0000 </r>
        <r>  0.0035  0.0014  0.0032  0.0020  0.0000  0.0000  0.0000  0.0000  0.0000 </r>
        <r>  0.0035  0.0014  0.0032  0.0020  0.0000  0.0000  0.0000  0.0000  0.0000 </r>
        <r>  0.0035  0.0014  0.0032  0.0020  0.0000  0.0000  0.0000  0.0000  0.0000 </r>
        <r>  0.0007  0.0000  0.0011  0.0018  0.0000  0.0000  0.0000  0.0000  0.0000 </r>
        <r>  0.0042  0.0005  0.0007  0.0015  0.0000  0.0000  0.0000  0.0000  0.0000 </r>
        <r>  0.0042  0.0005  0.0007  0.0015  0.0000  0.0000  0.0000  0.0000  0.0000 </r>
        <r>  0.0042  0.0005  0.0007  0.0015  0.0000  0.0000  0.0000  0.0000  0.0000 </r>
        <r>  0.0042  0.0005  0.0007  0.0015  0.0000  0.0000  0.0000  0.0000  0.0000 </r>
        <r>  0.0007  0.0000  0.0011  0.0018  0.0000  0.0000  0.0000  0.0000  0.0000 </r>
       </set>
       <set comment="band 64">
        <r>  0.0010  0.0020  0.0009  0.0105  0.0000  0.0000  0.0000  0.0000  0.0000 </r>
        <r>  0.0010  0.0020  0.0009  0.0105  0.0000  0.0000  0.0000  0.0000  0.0000 </r>
        <r>  0.0010  0.0020  0.0009  0.0105  0.0000  0.0000  0.0000  0.0000  0.0000 </r>
        <r>  0.0010  0.0020  0.0009  0.0105  0.0000  0.0000  0.0000  0.0000  0.0000 </r>
        <r>  0.0000  0.0021  0.0000  0.0000  0.0000  0.0000  0.0000  0.0000  0.0000 </r>
        <r>  0.0063  0.0011  0.0023  0.0105  0.0000  0.0000  0.0000  0.0000  0.0000 </r>
        <r>  0.0063  0.0011  0.0023  0.0105  0.0000  0.0000  0.0000  0.0000  0.0000 </r>
        <r>  0.0063  0.0011  0.0023  0.0105  0.0000  0.0000  0.0000  0.0000  0.0000 </r>
        <r>  0.0063  0.0011  0.0023  0.0105  0.0000  0.0000  0.0000  0.0000  0.0000 </r>
        <r>  0.0000  0.0021  0.0000  0.0000  0.0000  0.0000  0.0000  0.0000  0.0000 </r>
       </set>
      </set>
     </set>
    </set>
   </array>
  </projected>
 </calculation>
 <structure name="finalpos" >
  <crystal>
   <varray name="basis" >
    <v>       2.76975615      -4.86864486       0.00000000 </v>
    <v>       2.76975615       4.86864486       0.00000000 </v>
    <v>       0.00000000       0.00000000       4.96496119 </v>
   </varray>
   <i name="volume">    133.90459679 </i>
   <varray name="rec_basis" >
    <v>       0.18052131      -0.10269798       0.00000000 </v>
    <v>       0.18052131       0.10269798       0.00000000 </v>
    <v>       0.00000000       0.00000000       0.20141144 </v>
   </varray>
  </crystal>
  <varray name="positions" >
   <v>       0.00494045       0.67044108       0.93112700 </v>
   <v>       0.67044108       0.00494045       0.93112700 </v>
   <v>       0.32955892       0.99505955       0.43112700 </v>
   <v>       0.99505955       0.32955892       0.43112700 </v>
   <v>       0.22790700       0.22790700       0.49401985 </v>
   <v>       0.09792863       0.66043456       0.58573308 </v>
   <v>       0.66043456       0.09792863       0.58573308 </v>
   <v>       0.33956544       0.90207137       0.08573308 </v>
   <v>       0.90207137       0.33956544       0.08573308 </v>
   <v>       0.77209300       0.77209300       0.99401985 </v>
  </varray>
 </structure>
</modeling>
