<?xml version="1.0" encoding="ISO-8859-1"?>
<modeling>
 <generator>
  <i name="program" type="string">vasp </i>
  <i name="version" type="string">6.4.3  </i>
  <i name="subversion" type="string">19Mar24 (build Oct 16 2024 18:29:25) complex                          parallel </i>
  <i name="platform" type="string">LinuxIFC </i>
  <i name="date" type="string">2025 08 12 </i>
  <i name="time" type="string">17:52:39 </i>
 </generator>
 <incar>
  <i type="string" name="PREC">Accurate</i>
  <i type="string" name="ALGO">Fast</i>
  <i type="int" name="ISPIN">     2</i>
  <i type="int" name="NELM">   100</i>
  <i type="int" name="IBRION">     2</i>
  <i name="EDIFF">      0.00010000</i>
  <i type="int" name="NSW">    99</i>
  <i type="int" name="ISIF">     3</i>
  <i name="ENCUT">    520.00000000</i>
  <v name="MAGMOM">      0.60000000      0.60000000</v>
  <i type="string" name="LREAL">Auto</i>
  <i type="int" name="ISMEAR">     0</i>
  <i name="SIGMA">      0.05000000</i>
  <i type="logical" name="LWAVE"> F  </i>
  <i type="int" name="LORBIT">    11</i>
  <i type="logical" name="LASPH"> T  </i>
 </incar>
 <primitive_cell>
  <structure name="primitive_cell" >
   <crystal>
    <varray name="basis" >
     <v>      30.01000000       0.00000000       0.00000000 </v>
     <v>       0.00000000      30.00000000       0.00000000 </v>
     <v>       0.00000000       0.00000000      29.99000000 </v>
    </varray>
    <i name="volume">  26999.99700000 </i>
    <varray name="rec_basis" >
     <v>       0.03332223       0.00000000       0.00000000 </v>
     <v>       0.00000000       0.03333333       0.00000000 </v>
     <v>       0.00000000       0.00000000       0.03334445 </v>
    </varray>
   </crystal>
   <varray name="positions" >
    <v>       0.49983339       0.50000000       0.50016672 </v>
    <v>       0.49983339       0.50000000       0.56652217 </v>
   </varray>
  </structure>
  <varray name="primitive_index" >
   <v type="int" >        1 </v>
   <v type="int" >        2 </v>
  </varray>
 </primitive_cell>
 <kpoints>
  <generation param="Gamma">
   <v type="int" name="divisions">       1        1        1 </v>
   <v name="usershift">      0.00000000       0.00000000       0.00000000 </v>
   <v name="genvec1">      1.00000000       0.00000000       0.00000000 </v>
   <v name="genvec2">      0.00000000       1.00000000       0.00000000 </v>
   <v name="genvec3">      0.00000000       0.00000000       1.00000000 </v>
   <v name="shift">      0.00000000       0.00000000       0.00000000 </v>
  </generation>
  <varray name="kpointlist" >
   <v>       0.00000000       0.00000000       0.00000000 </v>
  </varray>
  <varray name="weights" >
   <v>       1.00000000 </v>
  </varray>
 </kpoints>
 <parameters>
  <separator name="general" >
   <i type="string" name="SYSTEM">unknown system</i>
   <i type="logical" name="LCOMPAT"> F  </i>
  </separator>
  <separator name="electronic" >
   <i type="string" name="PREC">accura</i>
   <i name="ENMAX">    520.00000000</i>
   <i name="ENAUG">    356.19200000</i>
   <i name="EDIFF">      0.00010000</i>
   <i type="int" name="IALGO">    68</i>
   <i type="int" name="IWAVPR">    11</i>
   <i type="int" name="NBANDS">    32</i>
   <i type="int" name="NBANDSLOW">    -1</i>
   <i type="int" name="NBANDSHIGH">    -1</i>
   <i name="NELECT">     14.00000000</i>
   <i type="int" name="TURBO">     0</i>
   <i type="int" name="IRESTART">     0</i>
   <i type="int" name="NREBOOT">     0</i>
   <i type="int" name="NMIN">     0</i>
   <i name="EREF">      0.00000000</i>
   <separator name="electronic smearing" >
    <i type="int" name="ISMEAR">     0</i>
    <i name="SIGMA">      0.05000000</i>
    <i name="KSPACING">      0.50000000</i>
    <i type="logical" name="KGAMMA"> T  </i>
    <i type="logical" name="KBLOWUP"> T  </i>
   </separator>
   <separator name="electronic projectors" >
    <i type="logical" name="LREAL"> T  </i>
    <v name="ROPT">     -0.00025000</v>
    <i type="int" name="LMAXPAW">  -100</i>
    <i type="int" name="LMAXMIX">     2</i>
    <i type="logical" name="NLSPLINE"> F  </i>
   </separator>
   <separator name="electronic startup" >
    <i type="int" name="ISTART">     0</i>
    <i type="int" name="ICHARG">     2</i>
    <i type="int" name="INIWAV">     1</i>
   </separator>
   <separator name="electronic spin" >
    <i type="int" name="ISPIN">     2</i>
    <i type="logical" name="LNONCOLLINEAR"> F  </i>
    <v name="MAGMOM">      0.60000000      0.60000000</v>
    <i name="NUPDOWN">     -1.00000000</i>
    <i type="logical" name="LSORBIT"> F  </i>
    <v name="SAXIS">      0.00000000      0.00000000      1.00000000</v>
    <i type="logical" name="LSPIRAL"> F  </i>
    <v name="QSPIRAL">      0.00000000      0.00000000      0.00000000</v>
    <i type="logical" name="LZEROZ"> F  </i>
   </separator>
   <separator name="electronic exchange-correlation" >
    <i type="logical" name="LASPH"> T  </i>
   </separator>
   <separator name="electronic convergence" >
    <i type="int" name="NELM">   100</i>
    <i type="int" name="NELMDL">    -5</i>
    <i type="int" name="NELMIN">     2</i>
    <i name="ENINI">    520.00000000</i>
    <separator name="electronic convergence detail" >
     <i type="logical" name="LDIAG"> T  </i>
     <i type="logical" name="LSUBROT"> F  </i>
     <i name="WEIMIN">      0.00100000</i>
     <i name="EBREAK">      0.00000078</i>
     <i name="DEPER">      0.30000000</i>
     <i type="int" name="NRMM">     4</i>
     <i name="TIME">      0.40000000</i>
    </separator>
   </separator>
   <separator name="electronic mixer" >
    <i name="AMIX">      0.40000000</i>
    <i name="BMIX">      1.00000000</i>
    <i name="AMIN">      0.10000000</i>
    <i name="AMIX_MAG">      1.60000000</i>
    <i name="BMIX_MAG">      1.00000000</i>
    <separator name="electronic mixer details" >
     <i type="int" name="IMIX">     4</i>
     <i type="logical" name="MIXFIRST"> F  </i>
     <i type="int" name="MAXMIX">   -45</i>
     <i name="WC">    100.00000000</i>
     <i type="int" name="INIMIX">     1</i>
     <i type="int" name="MIXPRE">     1</i>
     <i type="int" name="MREMOVE">     5</i>
    </separator>
   </separator>
   <separator name="electronic dipolcorrection" >
    <i type="logical" name="LDIPOL"> F  </i>
    <i type="logical" name="LMONO"> F  </i>
    <i type="int" name="IDIPOL">     0</i>
    <i name="EPSILON">      1.00000000</i>
    <v name="DIPOL">   -100.00000000   -100.00000000   -100.00000000</v>
    <i name="EFIELD">      0.00000000</i>
    <i type="logical" name="LVACPOTAV"> F  </i>
   </separator>
  </separator>
  <separator name="grids" >
   <i type="int" name="NGX">   224</i>
   <i type="int" name="NGY">   224</i>
   <i type="int" name="NGZ">   224</i>
   <i type="int" name="NGXF">   448</i>
   <i type="int" name="NGYF">   448</i>
   <i type="int" name="NGZF">   448</i>
   <i type="logical" name="ADDGRID"> F  </i>
  </separator>
  <separator name="ionic" >
   <i type="int" name="NSW">    99</i>
   <i type="int" name="IBRION">     2</i>
   <i type="int" name="MDALGO">     0</i>
   <i type="int" name="ISIF">     3</i>
   <i name="PSTRESS">      0.00000000</i>
   <i name="EDIFFG">      0.00100000</i>
   <i type="int" name="NFREE">     1</i>
   <i name="POTIM">      0.50000000</i>
   <i name="SMASS">     -3.00000000</i>
   <i name="SCALEE">      1.00000000</i>
  </separator>
  <separator name="ionic md" >
   <i name="TEBEG">      0.00010000</i>
   <i name="TEEND">      0.00010000</i>
   <i type="int" name="NBLOCK">     1</i>
   <i type="int" name="KBLOCK">    99</i>
   <i type="int" name="NPACO">   256</i>
   <i name="APACO">     10.00000000</i>
  </separator>
  <separator name="symmetry" >
   <i type="int" name="ISYM">     2</i>
   <i name="SYMPREC">      0.00001000</i>
  </separator>
  <separator name="dos" >
   <i type="int" name="LORBIT">    11</i>
   <v name="RWIGS">     -1.00000000</v>
   <i type="int" name="NEDOS">   301</i>
   <i name="EMIN">     10.00000000</i>
   <i name="EMAX">    -10.00000000</i>
   <i name="EFERMI">      0.00000000</i>
  </separator>
  <separator name="writing" >
   <i type="int" name="NWRITE">     2</i>
   <i type="logical" name="LWAVE"> F  </i>
   <i type="logical" name="LDOWNSAMPLE"> F  </i>
   <i type="logical" name="LCHARG"> T  </i>
   <i type="logical" name="LPARD"> F  </i>
   <i type="logical" name="LVTOT"> F  </i>
   <i type="logical" name="LVHAR"> F  </i>
   <i type="logical" name="LELF"> F  </i>
   <i type="logical" name="LOPTICS"> F  </i>
   <v name="STM">      0.00000000      0.00000000      0.00000000      0.00000000      0.00000000      0.00000000      0.00000000</v>
  </separator>
  <separator name="performance" >
   <i type="int" name="NPAR">    32</i>
   <i type="int" name="NSIM">     4</i>
   <i type="int" name="NBLK">    -1</i>
   <i type="logical" name="LPLANE"> T  </i>
   <i type="logical" name="LSCALAPACK"> T  </i>
   <i type="logical" name="LSCAAWARE"> F  </i>
   <i type="logical" name="LSCALU"> F  </i>
   <i type="logical" name="LASYNC"> F  </i>
   <i type="logical" name="LORBITALREAL"> F  </i>
  </separator>
  <separator name="miscellaneous" >
   <i type="int" name="IDIOT">     3</i>
   <i type="int" name="PHON_NSTRUCT">    -1</i>
   <i type="logical" name="LMUSIC"> F  </i>
   <v name="POMASS">     35.45300000</v>
   <v name="DARWINR">      0.00000000</v>
   <v name="DARWINV">      1.00000000</v>
   <i type="logical" name="LCORR"> T  </i>
  </separator>
  <i type="logical" name="GGA_COMPAT"> T  </i>
  <i type="logical" name="LBERRY"> F  </i>
  <i type="int" name="ICORELEVEL">     0</i>
  <i type="logical" name="LDAU"> F  </i>
  <i type="int" name="I_CONSTRAINED_M">     0</i>
  <separator name="electronic exchange-correlation" >
   <i type="string" name="GGA    ">PE</i>
   <i type="string" name="XC_C">1</i>
   <i type="int" name="VOSKOWN">     0</i>
   <i type="logical" name="LHFCALC"> F  </i>
   <i type="string" name="PRECFOCK"></i>
   <i type="logical" name="LSYMGRAD"> F  </i>
   <i type="logical" name="LHFONE"> F  </i>
   <i type="logical" name="LRHFCALC"> F  </i>
   <i type="logical" name="LTHOMAS"> F  </i>
   <i type="logical" name="LMODELHF"> F  </i>
   <i type="logical" name="LFOCKACE"> F  </i>
   <i name="ENCUT4O">     -1.00000000</i>
   <i type="int" name="EXXOEP">     0</i>
   <i type="int" name="FOURORBIT">     0</i>
   <i name="AEXX">      0.00000000</i>
   <i name="HFALPHA">      0.00000000</i>
   <i name="MCALPHA">      0.00000000</i>
   <i name="ALDAX">      1.00000000</i>
   <i name="AGGAX">      1.00000000</i>
   <i name="AMGGAX">      1.00000000</i>
   <i name="ALDAC">      1.00000000</i>
   <i name="AGGAC">      1.00000000</i>
   <i name="AMGGAC">      1.00000000</i>
   <i type="int" name="NKREDX">     1</i>
   <i type="int" name="NKREDY">     1</i>
   <i type="int" name="NKREDZ">     1</i>
   <i type="logical" name="SHIFTRED"> F  </i>
   <i type="logical" name="ODDONLY"> F  </i>
   <i type="logical" name="EVENONLY"> F  </i>
   <i type="int" name="LMAXFOCK">     0</i>
   <i type="int" name="NMAXFOCKAE">     0</i>
   <i type="logical" name="LFOCKAEDFT"> F  </i>
   <i name="HFSCREEN">      0.00000000</i>
   <i name="HFSCREENC">      0.00000000</i>
   <i type="int" name="NBANDSGWLOW">     0</i>
  </separator>
  <separator name="vdW DFT" >
   <i type="logical" name="LUSE_VDW"> F  </i>
   <i type="int" name="IVDW_NL">    -1</i>
   <i type="logical" name="LSPIN_VDW"> F  </i>
   <i name="ZAB_VDW">     -0.84910000</i>
   <i name="GAMMA_VDW">      1.39626340</i>
   <i name="ALPHA_VDW">      0.00000000</i>
   <i name="PARAM1">      0.12340000</i>
   <i name="PARAM2">      1.00000000</i>
   <i name="BPARAM">      6.30000000</i>
   <i name="CPARAM">      0.00930000</i>
  </separator>
  <separator name="model GW" >
   <i type="int" name="MODEL_GW">     0</i>
   <i name="MODEL_EPS0">   8099.99910000</i>
   <i name="MODEL_ALPHA">      1.00000000</i>
  </separator>
  <separator name="linear response parameters" >
   <i type="logical" name="LEPSILON"> F  </i>
   <i type="logical" name="LRPA"> F  </i>
   <i type="logical" name="LNABLA"> F  </i>
   <i type="logical" name="LVEL"> F  </i>
   <i name="CSHIFT">      0.10000000</i>
   <i name="OMEGAMAX">     -1.00000000</i>
   <i name="DEG_THRESHOLD">      0.00200000</i>
   <i name="RTIME">     -0.10000000</i>
   <i name="WPLASMAI">      0.00000000</i>
   <v name="DFIELD">      0.00000000      0.00000000      0.00000000</v>
   <v name="WPLASMA">      0.00000000      0.00000000      0.00000000      0.00000000      0.00000000      0.00000000      0.00000000      0.00000000      0.00000000</v>
  </separator>
  <separator name="orbital magnetization" >
   <i type="logical" name="NUCIND"> F  </i>
   <v name="MAGPOS">      0.00000000      0.00000000      0.00000000</v>
   <i type="logical" name="LNICSALL"> T  </i>
   <i type="logical" name="ORBITALMAG"> F  </i>
   <i type="logical" name="LMAGBLOCH"> F  </i>
   <i type="logical" name="LCHIMAG"> F  </i>
   <i type="logical" name="LGAUGE"> T  </i>
   <i type="int" name="MAGATOM">     0</i>
   <v name="MAGDIPOL">      0.00000000      0.00000000      0.00000000</v>
   <v name="AVECCONST">      0.00000000      0.00000000      0.00000000</v>
  </separator>
  <separator name="response functions" >
   <i type="logical" name="LALL_IN_ONE"> F  </i>
   <i type="int" name="IALL_IN_ONE">    -1</i>
   <i type="int" name="NBANDS_WAVE">    -1</i>
   <i type="logical" name="LFINITE_TEMPERATURE"> F  </i>
   <i type="logical" name="LADDER"> F  </i>
   <i type="logical" name="LRPAFORCE"> F  </i>
   <i type="logical" name="LFXC"> F  </i>
   <i type="logical" name="LHARTREE"> T  </i>
   <i type="int" name="IBSE">     0</i>
   <v type="int" name="KPOINT">    -1     0     0     0</v>
   <i type="logical" name="LTCTC"> F  </i>
   <i type="logical" name="LTCTE"> F  </i>
   <i type="logical" name="LTETE"> F  </i>
   <i type="logical" name="LTRIPLET"> F  </i>
   <i type="logical" name="LFXCEPS"> F  </i>
   <i type="logical" name="LFXHEG"> F  </i>
   <i type="int" name="NATURALO">     2</i>
   <i type="logical" name="LHOLEGF"> F  </i>
   <i type="logical" name="L2ORDER"> F  </i>
   <i type="logical" name="LDMP1"> F  </i>
   <i type="logical" name="LMP2LT"> F  </i>
   <i type="logical" name="LSMP2LT"> F  </i>
   <i type="logical" name="LGWLF"> F  </i>
   <i name="ENCUTGW">     -1.60000002</i>
   <i name="ENCUTGWSOFT">     -1.60000002</i>
   <i name="ENCUTLF">     -1.00000000</i>
   <i type="logical" name="ESF_SPLINES"> F  </i>
   <i name="ESF_CONV">      0.01000000</i>
   <i type="int" name="ESF_NINTER">    15</i>
   <i type="int" name="LMAXMP2">    -1</i>
   <i name="SCISSOR">      0.00000000</i>
   <i type="int" name="NOMEGA">     0</i>
   <i type="int" name="NOMEGAR">     0</i>
   <i type="int" name="NBANDSGW">    -1</i>
   <i type="int" name="NBANDSO">    -1</i>
   <i type="int" name="NBANDSV">    -1</i>
   <i type="int" name="NELMGW">     1</i>
   <i type="int" name="NELMHF">     1</i>
   <i type="int" name="DIM">     3</i>
   <i type="int" name="IESPILON">     4</i>
   <i type="int" name="ANTIRES">     0</i>
   <i name="OMEGAMAX">    -30.00000000</i>
   <i name="OMEGAMIN">    -30.00000000</i>
   <i name="OMEGATL">   -200.00000000</i>
   <i type="int" name="OMEGAGRID">     0</i>
   <i name="CSHIFT">     -0.10000000</i>
   <i type="logical" name="LSELFENERGY"> F  </i>
   <i type="logical" name="LSPECTRAL"> F  </i>
   <i type="logical" name="LSPECTRALGW"> F  </i>
   <i type="logical" name="LSINGLES"> F  </i>
   <i type="logical" name="LFERMIGW"> F  </i>
   <i type="logical" name="ODDONLYGW"> F  </i>
   <i type="logical" name="EVENONLYGW"> F  </i>
   <i type="int" name="NKREDLFX">     1</i>
   <i type="int" name="NKREDLFY">     1</i>
   <i type="int" name="NKREDLFZ">     1</i>
   <i type="int" name="MAXMEM">  2800</i>
   <i type="int" name="TELESCOPE">     0</i>
   <i type="int" name="NTAUPAR">    -1</i>
   <i type="int" name="NOMEGAPAR">    -1</i>
   <i name="DAMP_NEWTON">      0.80000001</i>
   <i name="LAMBDA">      1.00000000</i>
  </separator>
  <separator name="External order field" >
   <i name="OFIELD_KAPPA">      0.00000000</i>
   <v name="OFIELD_K">      0.00000000      0.00000000      0.00000000</v>
   <i name="OFIELD_Q6_NEAR">      0.00000000</i>
   <i name="OFIELD_Q6_FAR">      0.00000000</i>
   <i name="OFIELD_A">      0.00000000</i>
  </separator>
  <separator name="optional k-points parameters" >
   <i type="int" name="KPOINTS_OPT_MODE">     1</i>
   <i type="logical" name="LKPOINTS_OPT"> F  </i>
  </separator>
 </parameters>
 <atominfo>
  <atoms>       2 </atoms>
  <types>       1 </types>
  <array name="atoms" >
   <dimension dim="1">ion</dimension>
   <field type="string">element</field>
   <field type="int">atomtype</field>
   <set>
    <rc><c>Cl</c><c>   1</c></rc>
    <rc><c>Cl</c><c>   1</c></rc>
   </set>
  </array>
  <array name="atomtypes" >
   <dimension dim="1">type</dimension>
   <field type="int">atomspertype</field>
   <field type="string">element</field>
   <field>mass</field>
   <field>valence</field>
   <field type="string">pseudopotential</field>
   <set>
    <rc><c>   2</c><c>Cl</c><c>     35.45300000</c><c>      7.00000000</c><c>  PAW_PBE Cl 17Jan2003                  </c></rc>
   </set>
  </array>
 </atominfo>
 <structure name="initialpos" >
  <crystal>
   <varray name="basis" >
    <v>      30.01000000       0.00000000       0.00000000 </v>
    <v>       0.00000000      30.00000000       0.00000000 </v>
    <v>       0.00000000       0.00000000      29.99000000 </v>
   </varray>
   <i name="volume">  26999.99700000 </i>
   <varray name="rec_basis" >
    <v>       0.03332223       0.00000000       0.00000000 </v>
    <v>       0.00000000       0.03333333       0.00000000 </v>
    <v>       0.00000000       0.00000000       0.03334445 </v>
   </varray>
  </crystal>
  <varray name="positions" >
   <v>       0.49983339       0.50000000       0.50016672 </v>
   <v>       0.49983339       0.50000000       0.56652217 </v>
  </varray>
 </structure>
 <calculation>
  <scstep>
   <time name="dav">    9.17    9.22</time>
   <time name="total">   14.70   14.78</time>
   <energy>
    <i name="alphaZ">      0.03128887 </i>
    <i name="ewald">    221.32162361 </i>
    <i name="hartreedc">   -903.81129083 </i>
    <i name="XCdc">     39.84626681 </i>
    <i name="pawpsdc">    396.94841945 </i>
    <i name="pawaedc">   -397.17377981 </i>
    <i name="eentropy">     -0.08424010 </i>
    <i name="bandstr">    -96.50647260 </i>
    <i name="atom">    819.44710698 </i>
    <i name="e_fr_energy">     80.01892238 </i>
    <i name="e_wo_entrp">     80.10316248 </i>
    <i name="e_0_energy">     80.06104243 </i>
   </energy>
  </scstep>
  <scstep>
   <time name="dav">    8.91    8.97</time>
   <time name="total">    8.91    8.97</time>
   <energy>
    <i name="e_fr_energy">     10.39686979 </i>
    <i name="e_wo_entrp">     10.39686979 </i>
    <i name="e_0_energy">     10.39686979 </i>
   </energy>
  </scstep>
  <scstep>
   <time name="dav">    5.19    5.22</time>
   <time name="total">    5.19    5.22</time>
   <energy>
    <i name="e_fr_energy">     -3.24281270 </i>
    <i name="e_wo_entrp">     -3.24281270 </i>
    <i name="e_0_energy">     -3.24281270 </i>
   </energy>
  </scstep>
  <scstep>
   <time name="dav">    5.20    5.23</time>
   <time name="total">    5.20    5.23</time>
   <energy>
    <i name="e_fr_energy">     -3.70261085 </i>
    <i name="e_wo_entrp">     -3.70261085 </i>
    <i name="e_0_energy">     -3.70261085 </i>
   </energy>
  </scstep>
  <scstep>
   <time name="dav">    8.87    8.92</time>
   <time name="total">   11.80   11.86</time>
   <energy>
    <i name="e_fr_energy">     -3.70961508 </i>
    <i name="e_wo_entrp">     -3.70961508 </i>
    <i name="e_0_energy">     -3.70961508 </i>
   </energy>
  </scstep>
  <scstep>
   <time name="diag">    1.30    1.31</time>
   <time name="diis">    5.22    5.24</time>
   <time name="orth">    0.07    0.07</time>
   <time name="total">   14.83   14.90</time>
   <energy>
    <i name="e_fr_energy">     -1.93752393 </i>
    <i name="e_wo_entrp">     -1.93752393 </i>
    <i name="e_0_energy">     -1.93752393 </i>
   </energy>
  </scstep>
  <scstep>
   <time name="diag">    1.28    1.29</time>
   <time name="diis">    5.14    5.17</time>
   <time name="orth">    0.07    0.07</time>
   <time name="total">   14.75   14.82</time>
   <energy>
    <i name="e_fr_energy">     -2.47750613 </i>
    <i name="e_wo_entrp">     -2.47750613 </i>
    <i name="e_0_energy">     -2.47750613 </i>
   </energy>
  </scstep>
  <scstep>
   <time name="diag">    1.30    1.31</time>
   <time name="diis">    5.14    5.16</time>
   <time name="orth">    0.07    0.07</time>
   <time name="total">   14.76   14.84</time>
   <energy>
    <i name="e_fr_energy">     -3.14973490 </i>
    <i name="e_wo_entrp">     -3.14973490 </i>
    <i name="e_0_energy">     -3.14973490 </i>
   </energy>
  </scstep>
  <scstep>
   <time name="diag">    1.29    1.30</time>
   <time name="diis">    5.67    5.69</time>
   <time name="orth">    0.07    0.07</time>
   <time name="total">   15.28   15.34</time>
   <energy>
    <i name="e_fr_energy">     -3.21687004 </i>
    <i name="e_wo_entrp">     -3.21687004 </i>
    <i name="e_0_energy">     -3.21687004 </i>
   </energy>
  </scstep>
  <scstep>
   <time name="diag">    1.29    1.30</time>
   <time name="diis">    5.64    5.67</time>
   <time name="orth">    0.07    0.07</time>
   <time name="total">   15.64   15.72</time>
   <energy>
    <i name="e_fr_energy">     -3.25750004 </i>
    <i name="e_wo_entrp">     -3.25750004 </i>
    <i name="e_0_energy">     -3.25750004 </i>
   </energy>
  </scstep>
  <scstep>
   <time name="diag">    1.28    1.29</time>
   <time name="diis">    5.20    5.23</time>
   <time name="orth">    0.07    0.07</time>
   <time name="total">   15.02   15.09</time>
   <energy>
    <i name="e_fr_energy">     -3.35498193 </i>
    <i name="e_wo_entrp">     -3.35498193 </i>
    <i name="e_0_energy">     -3.35498193 </i>
   </energy>
  </scstep>
  <scstep>
   <time name="diag">    1.30    1.30</time>
   <time name="diis">    5.16    5.19</time>
   <time name="orth">    0.07    0.07</time>
   <time name="total">   15.15   15.22</time>
   <energy>
    <i name="e_fr_energy">     -3.41573003 </i>
    <i name="e_wo_entrp">     -3.41573003 </i>
    <i name="e_0_energy">     -3.41573003 </i>
   </energy>
  </scstep>
  <scstep>
   <time name="diag">    1.29    1.30</time>
   <time name="diis">    5.90    5.93</time>
   <time name="orth">    0.07    0.07</time>
   <time name="total">   15.87   15.94</time>
   <energy>
    <i name="e_fr_energy">     -3.48658847 </i>
    <i name="e_wo_entrp">     -3.48658847 </i>
    <i name="e_0_energy">     -3.48658847 </i>
   </energy>
  </scstep>
  <scstep>
   <time name="diag">    1.34    1.35</time>
   <time name="diis">    5.21    5.23</time>
   <time name="orth">    0.07    0.07</time>
   <time name="total">   15.09   15.16</time>
   <energy>
    <i name="e_fr_energy">     -3.53101217 </i>
    <i name="e_wo_entrp">     -3.53101217 </i>
    <i name="e_0_energy">     -3.53101217 </i>
   </energy>
  </scstep>
  <scstep>
   <time name="diag">    1.28    1.29</time>
   <time name="diis">    5.55    5.60</time>
   <time name="orth">    0.07    0.07</time>
   <time name="total">   15.20   15.32</time>
   <energy>
    <i name="e_fr_energy">     -3.55582527 </i>
    <i name="e_wo_entrp">     -3.55582527 </i>
    <i name="e_0_energy">     -3.55582527 </i>
   </energy>
  </scstep>
  <scstep>
   <time name="diag">    1.30    1.30</time>
   <time name="diis">    5.58    5.60</time>
   <time name="orth">    0.07    0.07</time>
   <time name="total">   15.26   15.33</time>
   <energy>
    <i name="e_fr_energy">     -3.57797155 </i>
    <i name="e_wo_entrp">     -3.57797155 </i>
    <i name="e_0_energy">     -3.57797155 </i>
   </energy>
  </scstep>
  <scstep>
   <time name="diag">    1.40    1.41</time>
   <time name="diis">    5.02    5.05</time>
   <time name="orth">    0.07    0.07</time>
   <time name="total">   14.83   14.90</time>
   <energy>
    <i name="e_fr_energy">     -3.58222927 </i>
    <i name="e_wo_entrp">     -3.58222927 </i>
    <i name="e_0_energy">     -3.58222927 </i>
   </energy>
  </scstep>
  <scstep>
   <time name="diag">    1.30    1.30</time>
   <time name="diis">    4.92    4.94</time>
   <time name="orth">    0.07    0.07</time>
   <time name="total">   14.60   14.66</time>
   <energy>
    <i name="e_fr_energy">     -3.59150163 </i>
    <i name="e_wo_entrp">     -3.59150163 </i>
    <i name="e_0_energy">     -3.59150163 </i>
   </energy>
  </scstep>
  <scstep>
   <time name="diag">    1.30    1.31</time>
   <time name="diis">    4.85    4.87</time>
   <time name="orth">    0.07    0.07</time>
   <time name="total">   14.57   14.63</time>
   <energy>
    <i name="e_fr_energy">     -3.59341685 </i>
    <i name="e_wo_entrp">     -3.59341685 </i>
    <i name="e_0_energy">     -3.59341685 </i>
   </energy>
  </scstep>
  <scstep>
   <time name="diag">    1.41    1.42</time>
   <time name="diis">    4.90    4.92</time>
   <time name="orth">    0.07    0.07</time>
   <time name="total">   14.74   14.81</time>
   <energy>
    <i name="e_fr_energy">     -3.59548648 </i>
    <i name="e_wo_entrp">     -3.59548648 </i>
    <i name="e_0_energy">     -3.59548648 </i>
   </energy>
  </scstep>
  <scstep>
   <time name="diag">    1.28    1.28</time>
   <time name="diis">    4.80    4.82</time>
   <time name="orth">    0.07    0.07</time>
   <time name="total">   14.48   14.55</time>
   <energy>
    <i name="e_fr_energy">     -3.59701643 </i>
    <i name="e_wo_entrp">     -3.59701643 </i>
    <i name="e_0_energy">     -3.59701643 </i>
   </energy>
  </scstep>
  <scstep>
   <time name="diag">    1.39    1.40</time>
   <time name="diis">    4.87    4.89</time>
   <time name="orth">    0.07    0.07</time>
   <time name="total">   14.76   14.83</time>
   <energy>
    <i name="e_fr_energy">     -3.59736933 </i>
    <i name="e_wo_entrp">     -3.59736933 </i>
    <i name="e_0_energy">     -3.59736933 </i>
   </energy>
  </scstep>
  <scstep>
   <time name="diag">    1.30    1.30</time>
   <time name="diis">    4.76    4.78</time>
   <time name="orth">    0.07    0.07</time>
   <time name="total">   14.68   14.75</time>
   <energy>
    <i name="e_fr_energy">     -3.59780071 </i>
    <i name="e_wo_entrp">     -3.59780071 </i>
    <i name="e_0_energy">     -3.59780071 </i>
   </energy>
  </scstep>
  <scstep>
   <time name="diag">    1.27    1.28</time>
   <time name="diis">    4.62    4.64</time>
   <time name="orth">    0.07    0.07</time>
   <time name="total">   14.34   14.41</time>
   <energy>
    <i name="e_fr_energy">     -3.59800494 </i>
    <i name="e_wo_entrp">     -3.59800494 </i>
    <i name="e_0_energy">     -3.59800494 </i>
   </energy>
  </scstep>
  <scstep>
   <time name="diag">    1.27    1.28</time>
   <time name="diis">    4.67    4.68</time>
   <time name="orth">    0.07    0.07</time>
   <time name="total">   14.62   14.67</time>
   <energy>
    <i name="e_fr_energy">     -3.59818639 </i>
    <i name="e_wo_entrp">     -3.59818639 </i>
    <i name="e_0_energy">     -3.59818639 </i>
   </energy>
  </scstep>
  <scstep>
   <time name="diag">    1.40    1.41</time>
   <time name="diis">    4.75    4.77</time>
   <time name="orth">    0.07    0.07</time>
   <time name="total">   14.66   14.74</time>
   <energy>
    <i name="e_fr_energy">     -3.59836204 </i>
    <i name="e_wo_entrp">     -3.59836204 </i>
    <i name="e_0_energy">     -3.59836204 </i>
   </energy>
  </scstep>
  <scstep>
   <time name="diag">    1.30    1.30</time>
   <time name="diis">    4.64    4.66</time>
   <time name="orth">    0.07    0.07</time>
   <time name="total">   11.41   11.46</time>
   <energy>
    <i name="alphaZ">      0.03128887 </i>
    <i name="ewald">    221.32162361 </i>
    <i name="hartreedc">   -905.56199031 </i>
    <i name="XCdc">     40.05250096 </i>
    <i name="pawpsdc">    412.88724956 </i>
    <i name="pawaedc">   -413.22449107 </i>
    <i name="eentropy">     -0.00000000 </i>
    <i name="bandstr">   -178.55167428 </i>
    <i name="atom">    819.44710698 </i>
    <i name="e_fr_energy">     -3.59838568 </i>
    <i name="e_wo_entrp">     -3.59838568 </i>
    <i name="e_0_energy">     -3.59838568 </i>
   </energy>
  </scstep>
  <structure>
   <crystal>
    <varray name="basis" >
     <v>      30.01000000       0.00000000       0.00000000 </v>
     <v>       0.00000000      30.00000000       0.00000000 </v>
     <v>       0.00000000       0.00000000      29.99000000 </v>
    </varray>
    <i name="volume">  26999.99700000 </i>
    <varray name="rec_basis" >
     <v>       0.03332223       0.00000000       0.00000000 </v>
     <v>       0.00000000       0.03333333       0.00000000 </v>
     <v>       0.00000000       0.00000000       0.03334445 </v>
    </varray>
   </crystal>
   <varray name="positions" >
    <v>       0.49983339       0.50000000       0.50016672 </v>
    <v>       0.49983339       0.50000000       0.56652217 </v>
   </varray>
  </structure>
  <varray name="forces" >
   <v>       0.00000000       0.00000000      -0.06747576 </v>
   <v>      -0.00000000      -0.00000000       0.06747576 </v>
  </varray>
  <varray name="stress" >
   <v>      -0.00121388       0.00000000       0.00000000 </v>
   <v>       0.00000000      -0.00119266       0.00000000 </v>
   <v>       0.00000000       0.00000000       0.00709908 </v>
  </varray>
  <energy>
   <i name="e_fr_energy">     -3.59838568 </i>
   <i name="e_wo_entrp">     -3.59838568 </i>
   <i name="e_0_energy">     -3.59838568 </i>
  </energy>
  <time name="totalsc">  532.18  535.02</time>
 </calculation>
 <calculation>
  <scstep>
   <time name="dav">    8.03    8.08</time>
   <time name="total">   16.31   16.41</time>
   <energy>
    <i name="alphaZ">      0.03122939 </i>
    <i name="ewald">    219.23355454 </i>
    <i name="hartreedc">   -903.57661301 </i>
    <i name="XCdc">     40.00916737 </i>
    <i name="pawpsdc">    412.88792682 </i>
    <i name="pawaedc">   -413.22517099 </i>
    <i name="eentropy">     -0.00000000 </i>
    <i name="bandstr">   -178.40548400 </i>
    <i name="atom">    819.44710698 </i>
    <i name="e_fr_energy">     -3.59828291 </i>
    <i name="e_wo_entrp">     -3.59828291 </i>
    <i name="e_0_energy">     -3.59828291 </i>
   </energy>
  </scstep>
  <scstep>
   <time name="diag">    1.30    1.31</time>
   <time name="diis">    5.15    5.18</time>
   <time name="orth">    0.07    0.07</time>
   <time name="total">   15.14   15.23</time>
   <energy>
    <i name="e_fr_energy">     -3.59798692 </i>
    <i name="e_wo_entrp">     -3.59798692 </i>
    <i name="e_0_energy">     -3.59798692 </i>
   </energy>
  </scstep>
  <scstep>
   <time name="diag">    1.42    1.43</time>
   <time name="diis">    5.30    5.33</time>
   <time name="orth">    0.07    0.07</time>
   <time name="total">   15.22   15.31</time>
   <energy>
    <i name="e_fr_energy">     -3.59776961 </i>
    <i name="e_wo_entrp">     -3.59776961 </i>
    <i name="e_0_energy">     -3.59776961 </i>
   </energy>
  </scstep>
  <scstep>
   <time name="diag">    1.29    1.30</time>
   <time name="diis">    5.46    5.49</time>
   <time name="orth">    0.07    0.07</time>
   <time name="total">   12.36   12.43</time>
   <energy>
    <i name="alphaZ">      0.03122939 </i>
    <i name="ewald">    219.23355454 </i>
    <i name="hartreedc">   -903.61371700 </i>
    <i name="XCdc">     40.01430841 </i>
    <i name="pawpsdc">    412.08709272 </i>
    <i name="pawaedc">   -412.41627929 </i>
    <i name="eentropy">     -0.00000000 </i>
    <i name="bandstr">   -178.38108137 </i>
    <i name="atom">    819.44710698 </i>
    <i name="e_fr_energy">     -3.59778563 </i>
    <i name="e_wo_entrp">     -3.59778563 </i>
    <i name="e_0_energy">     -3.59778563 </i>
   </energy>
  </scstep>
  <structure>
   <crystal>
    <varray name="basis" >
     <v>      29.99519196       0.00000000       0.00000000 </v>
     <v>       0.00000000      29.98545567       0.00000000 </v>
     <v>       0.00000000       0.00000000      30.07654320 </v>
    </varray>
    <i name="volume">  27051.42940332 </i>
    <varray name="rec_basis" >
     <v>       0.03333868       0.00000000       0.00000000 </v>
     <v>       0.00000000       0.03334950      -0.00000000 </v>
     <v>      -0.00000000      -0.00000000       0.03324850 </v>
    </varray>
   </crystal>
   <varray name="positions" >
    <v>       0.49983339       0.50000000       0.50005818 </v>
    <v>       0.49983339       0.50000000       0.56663072 </v>
   </varray>
  </structure>
  <varray name="forces" >
   <v>      -0.00000000       0.00000000       0.14648402 </v>
   <v>       0.00000000      -0.00000000      -0.14648402 </v>
  </varray>
  <varray name="stress" >
   <v>      -0.00190364       0.00000000      -0.00000000 </v>
   <v>       0.00000000      -0.00187245      -0.00000000 </v>
   <v>       0.00000000       0.00000000      -0.01966764 </v>
  </varray>
  <energy>
   <i name="e_fr_energy">     -3.59778563 </i>
   <i name="e_wo_entrp">     -3.59778563 </i>
   <i name="e_0_energy">     -3.59778563 </i>
  </energy>
  <time name="totalsc">   81.01   81.50</time>
 </calculation>
 <calculation>
  <scstep>
   <time name="dav">    6.16    6.19</time>
   <time name="total">   14.28   14.35</time>
   <energy>
    <i name="alphaZ">      0.03127101 </i>
    <i name="ewald">    220.69161894 </i>
    <i name="hartreedc">   -904.99914273 </i>
    <i name="XCdc">     40.04436523 </i>
    <i name="pawpsdc">    412.07854401 </i>
    <i name="pawaedc">   -412.40765184 </i>
    <i name="eentropy">     -0.00000000 </i>
    <i name="bandstr">   -178.48476340 </i>
    <i name="atom">    819.44710698 </i>
    <i name="e_fr_energy">     -3.59865181 </i>
    <i name="e_wo_entrp">     -3.59865181 </i>
    <i name="e_0_energy">     -3.59865181 </i>
   </energy>
  </scstep>
  <scstep>
   <time name="diag">    1.28    1.29</time>
   <time name="diis">    5.13    5.15</time>
   <time name="orth">    0.07    0.07</time>
   <time name="total">   15.05   15.13</time>
   <energy>
    <i name="e_fr_energy">     -3.59859800 </i>
    <i name="e_wo_entrp">     -3.59859800 </i>
    <i name="e_0_energy">     -3.59859800 </i>
   </energy>
  </scstep>
  <scstep>
   <time name="diag">    1.39    1.40</time>
   <time name="diis">    5.24    5.27</time>
   <time name="orth">    0.07    0.07</time>
   <time name="total">   12.00   12.07</time>
   <energy>
    <i name="alphaZ">      0.03127101 </i>
    <i name="ewald">    220.69161894 </i>
    <i name="hartreedc">   -904.96454508 </i>
    <i name="XCdc">     40.03994567 </i>
    <i name="pawpsdc">    412.56221186 </i>
    <i name="pawaedc">   -412.89603269 </i>
    <i name="eentropy">     -0.00000000 </i>
    <i name="bandstr">   -178.51011704 </i>
    <i name="atom">    819.44710698 </i>
    <i name="e_fr_energy">     -3.59854035 </i>
    <i name="e_wo_entrp">     -3.59854035 </i>
    <i name="e_0_energy">     -3.59854035 </i>
   </energy>
  </scstep>
  <structure>
   <crystal>
    <varray name="basis" >
     <v>      30.00556404       0.00000000       0.00000000 </v>
     <v>       0.00000000      29.99564304       0.00000000 </v>
     <v>       0.00000000       0.00000000      30.01592523 </v>
    </varray>
    <i name="volume">  27015.41893032 </i>
    <varray name="rec_basis" >
     <v>       0.03332715       0.00000000       0.00000000 </v>
     <v>       0.00000000       0.03333818      -0.00000000 </v>
     <v>      -0.00000000      -0.00000000       0.03331565 </v>
    </varray>
   </crystal>
   <varray name="positions" >
    <v>       0.49983339       0.50000000       0.50013399 </v>
    <v>       0.49983339       0.50000000       0.56655491 </v>
   </varray>
  </structure>
  <varray name="forces" >
   <v>       0.00000000       0.00000000       0.01483616 </v>
   <v>      -0.00000000      -0.00000000      -0.01483616 </v>
  </varray>
  <varray name="stress" >
   <v>      -0.00074710       0.00000000       0.00000000 </v>
   <v>       0.00000000      -0.00073426       0.00000000 </v>
   <v>       0.00000000      -0.00000000      -0.00300623 </v>
  </varray>
  <energy>
   <i name="e_fr_energy">     -3.59854035 </i>
   <i name="e_wo_entrp">     -3.59854035 </i>
   <i name="e_0_energy">     -3.59854035 </i>
  </energy>
  <time name="totalsc">   62.24   62.58</time>
  <eigenvalues>
   <array>
    <dimension dim="1">band</dimension>
    <dimension dim="2">kpoint</dimension>
    <dimension dim="3">spin</dimension>
    <field>eigene</field>
    <field>occ</field>
    <set>
     <set comment="spin 1">
      <set comment="kpoint 1">
       <r>  -23.5277    1.0000 </r>
       <r>  -19.2819    1.0000 </r>
       <r>  -11.9618    1.0000 </r>
       <r>   -9.9517    1.0000 </r>
       <r>   -9.9516    1.0000 </r>
       <r>   -7.2903    1.0000 </r>
       <r>   -7.2903    1.0000 </r>
       <r>   -4.2317    0.0000 </r>
       <r>   -0.3952    0.0000 </r>
       <r>    0.0021    0.0000 </r>
       <r>    0.1159    0.0000 </r>
       <r>    0.1381    0.0000 </r>
       <r>    0.1382    0.0000 </r>
       <r>    0.1549    0.0000 </r>
       <r>    0.1591    0.0000 </r>
       <r>    0.1896    0.0000 </r>
       <r>    0.2415    0.0000 </r>
       <r>    0.2728    0.0000 </r>
       <r>    0.2729    0.0000 </r>
       <r>    0.3140    0.0000 </r>
       <r>    0.3179    0.0000 </r>
       <r>    0.3181    0.0000 </r>
       <r>    0.3228    0.0000 </r>
       <r>    0.3227    0.0000 </r>
       <r>    0.3228    0.0000 </r>
       <r>    0.3245    0.0000 </r>
       <r>    0.3275    0.0000 </r>
       <r>    0.4058    0.0000 </r>
       <r>    0.4449    0.0000 </r>
       <r>    0.4524    0.0000 </r>
       <r>    0.4524    0.0000 </r>
       <r>    0.4732    0.0000 </r>
      </set>
     </set>
     <set comment="spin 2">
      <set comment="kpoint 1">
       <r>  -23.5278    1.0000 </r>
       <r>  -19.2820    1.0000 </r>
       <r>  -11.9618    1.0000 </r>
       <r>   -9.9514    1.0000 </r>
       <r>   -9.9514    1.0000 </r>
       <r>   -7.2902    1.0000 </r>
       <r>   -7.2901    1.0000 </r>
       <r>   -4.2332    0.0000 </r>
       <r>   -0.3933    0.0000 </r>
       <r>    0.0390    0.0000 </r>
       <r>    0.1354    0.0000 </r>
       <r>    0.1622    0.0000 </r>
       <r>    0.1623    0.0000 </r>
       <r>    0.1734    0.0000 </r>
       <r>    0.1769    0.0000 </r>
       <r>    0.2478    0.0000 </r>
       <r>    0.2862    0.0000 </r>
       <r>    0.3104    0.0000 </r>
       <r>    0.3104    0.0000 </r>
       <r>    0.3396    0.0000 </r>
       <r>    0.3426    0.0000 </r>
       <r>    0.3449    0.0000 </r>
       <r>    0.3449    0.0000 </r>
       <r>    0.3483    0.0000 </r>
       <r>    0.3492    0.0000 </r>
       <r>    0.3519    0.0000 </r>
       <r>    0.3520    0.0000 </r>
       <r>    0.4504    0.0000 </r>
       <r>    0.4838    0.0000 </r>
       <r>    0.4844    0.0000 </r>
       <r>    0.4844    0.0000 </r>
       <r>    0.5110    0.0000 </r>
      </set>
     </set>
    </set>
   </array>
  </eigenvalues>
  <separator name="orbital magnetization" >
   <v name="MAGDIPOLOUT">      0.00000000      0.00000000      0.00000000</v>
  </separator>
  <dos>
   <i name="efermi">     -7.00762690 </i>
   <total>
    <array>
     <dimension dim="1">gridpoints</dimension>
     <dimension dim="2">spin</dimension>
     <field>energy</field>
     <field>total</field>
     <field>integrated</field>
     <set>
      <set comment="spin 1">
       <r>   -24.7298     0.0000     0.0000 </r>
       <r>   -24.6416     0.0000     0.0000 </r>
       <r>   -24.5535     0.0000     0.0000 </r>
       <r>   -24.4653     0.0000     0.0000 </r>
       <r>   -24.3772     0.0000     0.0000 </r>
       <r>   -24.2891     0.0000     0.0000 </r>
       <r>   -24.2009     0.0000     0.0000 </r>
       <r>   -24.1128     0.0000     0.0000 </r>
       <r>   -24.0246     0.0000     0.0000 </r>
       <r>   -23.9365     0.0000     0.0000 </r>
       <r>   -23.8483     0.0000     0.0000 </r>
       <r>   -23.7602     0.0000     0.0000 </r>
       <r>   -23.6721     0.0003     0.0000 </r>
       <r>   -23.5839     0.6330     0.0558 </r>
       <r>   -23.4958     8.6303     0.8165 </r>
       <r>   -23.4076     2.0778     0.9997 </r>
       <r>   -23.3195     0.0039     1.0000 </r>
       <r>   -23.2313     0.0000     1.0000 </r>
       <r>   -23.1432     0.0000     1.0000 </r>
       <r>   -23.0551     0.0000     1.0000 </r>
       <r>   -22.9669     0.0000     1.0000 </r>
       <r>   -22.8788     0.0000     1.0000 </r>
       <r>   -22.7906     0.0000     1.0000 </r>
       <r>   -22.7025     0.0000     1.0000 </r>
       <r>   -22.6143     0.0000     1.0000 </r>
       <r>   -22.5262     0.0000     1.0000 </r>
       <r>   -22.4381     0.0000     1.0000 </r>
       <r>   -22.3499     0.0000     1.0000 </r>
       <r>   -22.2618     0.0000     1.0000 </r>
       <r>   -22.1736     0.0000     1.0000 </r>
       <r>   -22.0855     0.0000     1.0000 </r>
       <r>   -21.9974     0.0000     1.0000 </r>
       <r>   -21.9092     0.0000     1.0000 </r>
       <r>   -21.8211     0.0000     1.0000 </r>
       <r>   -21.7329     0.0000     1.0000 </r>
       <r>   -21.6448     0.0000     1.0000 </r>
       <r>   -21.5566     0.0000     1.0000 </r>
       <r>   -21.4685     0.0000     1.0000 </r>
       <r>   -21.3804     0.0000     1.0000 </r>
       <r>   -21.2922     0.0000     1.0000 </r>
       <r>   -21.2041     0.0000     1.0000 </r>
       <r>   -21.1159     0.0000     1.0000 </r>
       <r>   -21.0278     0.0000     1.0000 </r>
       <r>   -20.9396     0.0000     1.0000 </r>
       <r>   -20.8515     0.0000     1.0000 </r>
       <r>   -20.7634     0.0000     1.0000 </r>
       <r>   -20.6752     0.0000     1.0000 </r>
       <r>   -20.5871     0.0000     1.0000 </r>
       <r>   -20.4989     0.0000     1.0000 </r>
       <r>   -20.4108     0.0000     1.0000 </r>
       <r>   -20.3226     0.0000     1.0000 </r>
       <r>   -20.2345     0.0000     1.0000 </r>
       <r>   -20.1464     0.0000     1.0000 </r>
       <r>   -20.0582     0.0000     1.0000 </r>
       <r>   -19.9701     0.0000     1.0000 </r>
       <r>   -19.8819     0.0000     1.0000 </r>
       <r>   -19.7938     0.0000     1.0000 </r>
       <r>   -19.7056     0.0000     1.0000 </r>
       <r>   -19.6175     0.0000     1.0000 </r>
       <r>   -19.5294     0.0000     1.0000 </r>
       <r>   -19.4412     0.0000     1.0000 </r>
       <r>   -19.3531     0.2505     1.0221 </r>
       <r>   -19.2649     7.5161     1.6846 </r>
       <r>   -19.1768     3.5620     1.9985 </r>
       <r>   -19.0887     0.0167     2.0000 </r>
       <r>   -19.0005     0.0000     2.0000 </r>
       <r>   -18.9124     0.0000     2.0000 </r>
       <r>   -18.8242     0.0000     2.0000 </r>
       <r>   -18.7361     0.0000     2.0000 </r>
       <r>   -18.6479     0.0000     2.0000 </r>
       <r>   -18.5598     0.0000     2.0000 </r>
       <r>   -18.4717     0.0000     2.0000 </r>
       <r>   -18.3835     0.0000     2.0000 </r>
       <r>   -18.2954     0.0000     2.0000 </r>
       <r>   -18.2072     0.0000     2.0000 </r>
       <r>   -18.1191     0.0000     2.0000 </r>
       <r>   -18.0309     0.0000     2.0000 </r>
       <r>   -17.9428     0.0000     2.0000 </r>
       <r>   -17.8547     0.0000     2.0000 </r>
       <r>   -17.7665     0.0000     2.0000 </r>
       <r>   -17.6784     0.0000     2.0000 </r>
       <r>   -17.5902     0.0000     2.0000 </r>
       <r>   -17.5021     0.0000     2.0000 </r>
       <r>   -17.4139     0.0000     2.0000 </r>
       <r>   -17.3258     0.0000     2.0000 </r>
       <r>   -17.2377     0.0000     2.0000 </r>
       <r>   -17.1495     0.0000     2.0000 </r>
       <r>   -17.0614     0.0000     2.0000 </r>
       <r>   -16.9732     0.0000     2.0000 </r>
       <r>   -16.8851     0.0000     2.0000 </r>
       <r>   -16.7969     0.0000     2.0000 </r>
       <r>   -16.7088     0.0000     2.0000 </r>
       <r>   -16.6207     0.0000     2.0000 </r>
       <r>   -16.5325     0.0000     2.0000 </r>
       <r>   -16.4444     0.0000     2.0000 </r>
       <r>   -16.3562     0.0000     2.0000 </r>
       <r>   -16.2681     0.0000     2.0000 </r>
       <r>   -16.1800     0.0000     2.0000 </r>
       <r>   -16.0918     0.0000     2.0000 </r>
       <r>   -16.0037     0.0000     2.0000 </r>
       <r>   -15.9155     0.0000     2.0000 </r>
       <r>   -15.8274     0.0000     2.0000 </r>
       <r>   -15.7392     0.0000     2.0000 </r>
       <r>   -15.6511     0.0000     2.0000 </r>
       <r>   -15.5630     0.0000     2.0000 </r>
       <r>   -15.4748     0.0000     2.0000 </r>
       <r>   -15.3867     0.0000     2.0000 </r>
       <r>   -15.2985     0.0000     2.0000 </r>
       <r>   -15.2104     0.0000     2.0000 </r>
       <r>   -15.1222     0.0000     2.0000 </r>
       <r>   -15.0341     0.0000     2.0000 </r>
       <r>   -14.9460     0.0000     2.0000 </r>
       <r>   -14.8578     0.0000     2.0000 </r>
       <r>   -14.7697     0.0000     2.0000 </r>
       <r>   -14.6815     0.0000     2.0000 </r>
       <r>   -14.5934     0.0000     2.0000 </r>
       <r>   -14.5052     0.0000     2.0000 </r>
       <r>   -14.4171     0.0000     2.0000 </r>
       <r>   -14.3290     0.0000     2.0000 </r>
       <r>   -14.2408     0.0000     2.0000 </r>
       <r>   -14.1527     0.0000     2.0000 </r>
       <r>   -14.0645     0.0000     2.0000 </r>
       <r>   -13.9764     0.0000     2.0000 </r>
       <r>   -13.8882     0.0000     2.0000 </r>
       <r>   -13.8001     0.0000     2.0000 </r>
       <r>   -13.7120     0.0000     2.0000 </r>
       <r>   -13.6238     0.0000     2.0000 </r>
       <r>   -13.5357     0.0000     2.0000 </r>
       <r>   -13.4475     0.0000     2.0000 </r>
       <r>   -13.3594     0.0000     2.0000 </r>
       <r>   -13.2712     0.0000     2.0000 </r>
       <r>   -13.1831     0.0000     2.0000 </r>
       <r>   -13.0950     0.0000     2.0000 </r>
       <r>   -13.0068     0.0000     2.0000 </r>
       <r>   -12.9187     0.0000     2.0000 </r>
       <r>   -12.8305     0.0000     2.0000 </r>
       <r>   -12.7424     0.0000     2.0000 </r>
       <r>   -12.6543     0.0000     2.0000 </r>
       <r>   -12.5661     0.0000     2.0000 </r>
       <r>   -12.4780     0.0000     2.0000 </r>
       <r>   -12.3898     0.0000     2.0000 </r>
       <r>   -12.3017     0.0000     2.0000 </r>
       <r>   -12.2135     0.0000     2.0000 </r>
       <r>   -12.1254     0.0000     2.0000 </r>
       <r>   -12.0373     0.1863     2.0164 </r>
       <r>   -11.9491     7.0772     2.6402 </r>
       <r>   -11.8610     4.0572     2.9978 </r>
       <r>   -11.7728     0.0246     3.0000 </r>
       <r>   -11.6847     0.0000     3.0000 </r>
       <r>   -11.5965     0.0000     3.0000 </r>
       <r>   -11.5084     0.0000     3.0000 </r>
       <r>   -11.4203     0.0000     3.0000 </r>
       <r>   -11.3321     0.0000     3.0000 </r>
       <r>   -11.2440     0.0000     3.0000 </r>
       <r>   -11.1558     0.0000     3.0000 </r>
       <r>   -11.0677     0.0000     3.0000 </r>
       <r>   -10.9795     0.0000     3.0000 </r>
       <r>   -10.8914     0.0000     3.0000 </r>
       <r>   -10.8033     0.0000     3.0000 </r>
       <r>   -10.7151     0.0000     3.0000 </r>
       <r>   -10.6270     0.0000     3.0000 </r>
       <r>   -10.5388     0.0000     3.0000 </r>
       <r>   -10.4507     0.0000     3.0000 </r>
       <r>   -10.3625     0.0000     3.0000 </r>
       <r>   -10.2744     0.0000     3.0000 </r>
       <r>   -10.1863     0.0000     3.0000 </r>
       <r>   -10.0981     0.0004     3.0000 </r>
       <r>   -10.0100     1.1226     3.0990 </r>
       <r>    -9.9218    17.0398     4.6009 </r>
       <r>    -9.8337     4.5182     4.9992 </r>
       <r>    -9.7456     0.0096     5.0000 </r>
       <r>    -9.6574     0.0000     5.0000 </r>
       <r>    -9.5693     0.0000     5.0000 </r>
       <r>    -9.4811     0.0000     5.0000 </r>
       <r>    -9.3930     0.0000     5.0000 </r>
       <r>    -9.3048     0.0000     5.0000 </r>
       <r>    -9.2167     0.0000     5.0000 </r>
       <r>    -9.1286     0.0000     5.0000 </r>
       <r>    -9.0404     0.0000     5.0000 </r>
       <r>    -8.9523     0.0000     5.0000 </r>
       <r>    -8.8641     0.0000     5.0000 </r>
       <r>    -8.7760     0.0000     5.0000 </r>
       <r>    -8.6878     0.0000     5.0000 </r>
       <r>    -8.5997     0.0000     5.0000 </r>
       <r>    -8.5116     0.0000     5.0000 </r>
       <r>    -8.4234     0.0000     5.0000 </r>
       <r>    -8.3353     0.0000     5.0000 </r>
       <r>    -8.2471     0.0000     5.0000 </r>
       <r>    -8.1590     0.0000     5.0000 </r>
       <r>    -8.0708     0.0000     5.0000 </r>
       <r>    -7.9827     0.0000     5.0000 </r>
       <r>    -7.8946     0.0000     5.0000 </r>
       <r>    -7.8064     0.0000     5.0000 </r>
       <r>    -7.7183     0.0000     5.0000 </r>
       <r>    -7.6301     0.0000     5.0000 </r>
       <r>    -7.5420     0.0000     5.0000 </r>
       <r>    -7.4538     0.0000     5.0000 </r>
       <r>    -7.3657     0.3739     5.0330 </r>
       <r>    -7.2776    14.1649     6.2815 </r>
       <r>    -7.1894     8.1027     6.9957 </r>
       <r>    -7.1013     0.0491     7.0000 </r>
       <r>    -7.0131     0.0000     7.0000 </r>
       <r>    -6.9250     0.0000     7.0000 </r>
       <r>    -6.8369     0.0000     7.0000 </r>
       <r>    -6.7487     0.0000     7.0000 </r>
       <r>    -6.6606     0.0000     7.0000 </r>
       <r>    -6.5724     0.0000     7.0000 </r>
       <r>    -6.4843     0.0000     7.0000 </r>
       <r>    -6.3961     0.0000     7.0000 </r>
       <r>    -6.3080     0.0000     7.0000 </r>
       <r>    -6.2199     0.0000     7.0000 </r>
       <r>    -6.1317     0.0000     7.0000 </r>
       <r>    -6.0436     0.0000     7.0000 </r>
       <r>    -5.9554     0.0000     7.0000 </r>
       <r>    -5.8673     0.0000     7.0000 </r>
       <r>    -5.7791     0.0000     7.0000 </r>
       <r>    -5.6910     0.0000     7.0000 </r>
       <r>    -5.6029     0.0000     7.0000 </r>
       <r>    -5.5147     0.0000     7.0000 </r>
       <r>    -5.4266     0.0000     7.0000 </r>
       <r>    -5.3384     0.0000     7.0000 </r>
       <r>    -5.2503     0.0000     7.0000 </r>
       <r>    -5.1621     0.0000     7.0000 </r>
       <r>    -5.0740     0.0000     7.0000 </r>
       <r>    -4.9859     0.0000     7.0000 </r>
       <r>    -4.8977     0.0000     7.0000 </r>
       <r>    -4.8096     0.0000     7.0000 </r>
       <r>    -4.7214     0.0000     7.0000 </r>
       <r>    -4.6333     0.0000     7.0000 </r>
       <r>    -4.5451     0.0000     7.0000 </r>
       <r>    -4.4570     0.0000     7.0000 </r>
       <r>    -4.3689     0.0006     7.0001 </r>
       <r>    -4.2807     0.9366     7.0826 </r>
       <r>    -4.1926     8.8820     7.8655 </r>
       <r>    -4.1044     1.5243     7.9998 </r>
       <r>    -4.0163     0.0018     8.0000 </r>
       <r>    -3.9281     0.0000     8.0000 </r>
       <r>    -3.8400     0.0000     8.0000 </r>
       <r>    -3.7519     0.0000     8.0000 </r>
       <r>    -3.6637     0.0000     8.0000 </r>
       <r>    -3.5756     0.0000     8.0000 </r>
       <r>    -3.4874     0.0000     8.0000 </r>
       <r>    -3.3993     0.0000     8.0000 </r>
       <r>    -3.3112     0.0000     8.0000 </r>
       <r>    -3.2230     0.0000     8.0000 </r>
       <r>    -3.1349     0.0000     8.0000 </r>
       <r>    -3.0467     0.0000     8.0000 </r>
       <r>    -2.9586     0.0000     8.0000 </r>
       <r>    -2.8704     0.0000     8.0000 </r>
       <r>    -2.7823     0.0000     8.0000 </r>
       <r>    -2.6942     0.0000     8.0000 </r>
       <r>    -2.6060     0.0000     8.0000 </r>
       <r>    -2.5179     0.0000     8.0000 </r>
       <r>    -2.4297     0.0000     8.0000 </r>
       <r>    -2.3416     0.0000     8.0000 </r>
       <r>    -2.2534     0.0000     8.0000 </r>
       <r>    -2.1653     0.0000     8.0000 </r>
       <r>    -2.0772     0.0000     8.0000 </r>
       <r>    -1.9890     0.0000     8.0000 </r>
       <r>    -1.9009     0.0000     8.0000 </r>
       <r>    -1.8127     0.0000     8.0000 </r>
       <r>    -1.7246     0.0000     8.0000 </r>
       <r>    -1.6364     0.0000     8.0000 </r>
       <r>    -1.5483     0.0000     8.0000 </r>
       <r>    -1.4602     0.0000     8.0000 </r>
       <r>    -1.3720     0.0000     8.0000 </r>
       <r>    -1.2839     0.0000     8.0000 </r>
       <r>    -1.1957     0.0000     8.0000 </r>
       <r>    -1.1076     0.0000     8.0000 </r>
       <r>    -1.0194     0.0000     8.0000 </r>
       <r>    -0.9313     0.0000     8.0000 </r>
       <r>    -0.8432     0.0000     8.0000 </r>
       <r>    -0.7550     0.0000     8.0000 </r>
       <r>    -0.6669     0.0000     8.0000 </r>
       <r>    -0.5787     0.0000     8.0000 </r>
       <r>    -0.4906     0.0395     8.0035 </r>
       <r>    -0.4025     4.7111     8.4187 </r>
       <r>    -0.3143     6.4690     8.9889 </r>
       <r>    -0.2262     0.1256     9.0000 </r>
       <r>    -0.1380     0.0004     9.0000 </r>
       <r>    -0.0499     0.8024     9.0708 </r>
       <r>     0.0383     9.0273     9.8664 </r>
       <r>     0.1264    21.7292    11.7817 </r>
       <r>     0.2145    47.3559    15.9558 </r>
       <r>     0.3027    56.8390    20.9657 </r>
       <r>     0.3908    71.7221    27.2875 </r>
       <r>     0.4790    41.2721    30.9253 </r>
       <r>     0.5671    12.1315    31.9946 </r>
       <r>     0.6553     0.0614    32.0000 </r>
       <r>     0.7434     0.0000    32.0000 </r>
       <r>     0.8315     0.0000    32.0000 </r>
       <r>     0.9197     0.0000    32.0000 </r>
       <r>     1.0078     0.0000    32.0000 </r>
       <r>     1.0960     0.0000    32.0000 </r>
       <r>     1.1841     0.0000    32.0000 </r>
       <r>     1.2723     0.0000    32.0000 </r>
       <r>     1.3604     0.0000    32.0000 </r>
       <r>     1.4485     0.0000    32.0000 </r>
       <r>     1.5367     0.0000    32.0000 </r>
       <r>     1.6248     0.0000    32.0000 </r>
       <r>     1.7130     0.0000    32.0000 </r>
      </set>
      <set comment="spin 2">
       <r>   -24.7298     0.0000     0.0000 </r>
       <r>   -24.6416     0.0000     0.0000 </r>
       <r>   -24.5535     0.0000     0.0000 </r>
       <r>   -24.4653     0.0000     0.0000 </r>
       <r>   -24.3772     0.0000     0.0000 </r>
       <r>   -24.2891     0.0000     0.0000 </r>
       <r>   -24.2009     0.0000     0.0000 </r>
       <r>   -24.1128     0.0000     0.0000 </r>
       <r>   -24.0246     0.0000     0.0000 </r>
       <r>   -23.9365     0.0000     0.0000 </r>
       <r>   -23.8483     0.0000     0.0000 </r>
       <r>   -23.7602     0.0000     0.0000 </r>
       <r>   -23.6721     0.0003     0.0000 </r>
       <r>   -23.5839     0.6387     0.0563 </r>
       <r>   -23.4958     8.6379     0.8177 </r>
       <r>   -23.4076     2.0646     0.9997 </r>
       <r>   -23.3195     0.0038     1.0000 </r>
       <r>   -23.2313     0.0000     1.0000 </r>
       <r>   -23.1432     0.0000     1.0000 </r>
       <r>   -23.0551     0.0000     1.0000 </r>
       <r>   -22.9669     0.0000     1.0000 </r>
       <r>   -22.8788     0.0000     1.0000 </r>
       <r>   -22.7906     0.0000     1.0000 </r>
       <r>   -22.7025     0.0000     1.0000 </r>
       <r>   -22.6143     0.0000     1.0000 </r>
       <r>   -22.5262     0.0000     1.0000 </r>
       <r>   -22.4381     0.0000     1.0000 </r>
       <r>   -22.3499     0.0000     1.0000 </r>
       <r>   -22.2618     0.0000     1.0000 </r>
       <r>   -22.1736     0.0000     1.0000 </r>
       <r>   -22.0855     0.0000     1.0000 </r>
       <r>   -21.9974     0.0000     1.0000 </r>
       <r>   -21.9092     0.0000     1.0000 </r>
       <r>   -21.8211     0.0000     1.0000 </r>
       <r>   -21.7329     0.0000     1.0000 </r>
       <r>   -21.6448     0.0000     1.0000 </r>
       <r>   -21.5566     0.0000     1.0000 </r>
       <r>   -21.4685     0.0000     1.0000 </r>
       <r>   -21.3804     0.0000     1.0000 </r>
       <r>   -21.2922     0.0000     1.0000 </r>
       <r>   -21.2041     0.0000     1.0000 </r>
       <r>   -21.1159     0.0000     1.0000 </r>
       <r>   -21.0278     0.0000     1.0000 </r>
       <r>   -20.9396     0.0000     1.0000 </r>
       <r>   -20.8515     0.0000     1.0000 </r>
       <r>   -20.7634     0.0000     1.0000 </r>
       <r>   -20.6752     0.0000     1.0000 </r>
       <r>   -20.5871     0.0000     1.0000 </r>
       <r>   -20.4989     0.0000     1.0000 </r>
       <r>   -20.4108     0.0000     1.0000 </r>
       <r>   -20.3226     0.0000     1.0000 </r>
       <r>   -20.2345     0.0000     1.0000 </r>
       <r>   -20.1464     0.0000     1.0000 </r>
       <r>   -20.0582     0.0000     1.0000 </r>
       <r>   -19.9701     0.0000     1.0000 </r>
       <r>   -19.8819     0.0000     1.0000 </r>
       <r>   -19.7938     0.0000     1.0000 </r>
       <r>   -19.7056     0.0000     1.0000 </r>
       <r>   -19.6175     0.0000     1.0000 </r>
       <r>   -19.5294     0.0000     1.0000 </r>
       <r>   -19.4412     0.0000     1.0000 </r>
       <r>   -19.3531     0.2523     1.0222 </r>
       <r>   -19.2649     7.5267     1.6857 </r>
       <r>   -19.1768     3.5496     1.9985 </r>
       <r>   -19.0887     0.0165     2.0000 </r>
       <r>   -19.0005     0.0000     2.0000 </r>
       <r>   -18.9124     0.0000     2.0000 </r>
       <r>   -18.8242     0.0000     2.0000 </r>
       <r>   -18.7361     0.0000     2.0000 </r>
       <r>   -18.6479     0.0000     2.0000 </r>
       <r>   -18.5598     0.0000     2.0000 </r>
       <r>   -18.4717     0.0000     2.0000 </r>
       <r>   -18.3835     0.0000     2.0000 </r>
       <r>   -18.2954     0.0000     2.0000 </r>
       <r>   -18.2072     0.0000     2.0000 </r>
       <r>   -18.1191     0.0000     2.0000 </r>
       <r>   -18.0309     0.0000     2.0000 </r>
       <r>   -17.9428     0.0000     2.0000 </r>
       <r>   -17.8547     0.0000     2.0000 </r>
       <r>   -17.7665     0.0000     2.0000 </r>
       <r>   -17.6784     0.0000     2.0000 </r>
       <r>   -17.5902     0.0000     2.0000 </r>
       <r>   -17.5021     0.0000     2.0000 </r>
       <r>   -17.4139     0.0000     2.0000 </r>
       <r>   -17.3258     0.0000     2.0000 </r>
       <r>   -17.2377     0.0000     2.0000 </r>
       <r>   -17.1495     0.0000     2.0000 </r>
       <r>   -17.0614     0.0000     2.0000 </r>
       <r>   -16.9732     0.0000     2.0000 </r>
       <r>   -16.8851     0.0000     2.0000 </r>
       <r>   -16.7969     0.0000     2.0000 </r>
       <r>   -16.7088     0.0000     2.0000 </r>
       <r>   -16.6207     0.0000     2.0000 </r>
       <r>   -16.5325     0.0000     2.0000 </r>
       <r>   -16.4444     0.0000     2.0000 </r>
       <r>   -16.3562     0.0000     2.0000 </r>
       <r>   -16.2681     0.0000     2.0000 </r>
       <r>   -16.1800     0.0000     2.0000 </r>
       <r>   -16.0918     0.0000     2.0000 </r>
       <r>   -16.0037     0.0000     2.0000 </r>
       <r>   -15.9155     0.0000     2.0000 </r>
       <r>   -15.8274     0.0000     2.0000 </r>
       <r>   -15.7392     0.0000     2.0000 </r>
       <r>   -15.6511     0.0000     2.0000 </r>
       <r>   -15.5630     0.0000     2.0000 </r>
       <r>   -15.4748     0.0000     2.0000 </r>
       <r>   -15.3867     0.0000     2.0000 </r>
       <r>   -15.2985     0.0000     2.0000 </r>
       <r>   -15.2104     0.0000     2.0000 </r>
       <r>   -15.1222     0.0000     2.0000 </r>
       <r>   -15.0341     0.0000     2.0000 </r>
       <r>   -14.9460     0.0000     2.0000 </r>
       <r>   -14.8578     0.0000     2.0000 </r>
       <r>   -14.7697     0.0000     2.0000 </r>
       <r>   -14.6815     0.0000     2.0000 </r>
       <r>   -14.5934     0.0000     2.0000 </r>
       <r>   -14.5052     0.0000     2.0000 </r>
       <r>   -14.4171     0.0000     2.0000 </r>
       <r>   -14.3290     0.0000     2.0000 </r>
       <r>   -14.2408     0.0000     2.0000 </r>
       <r>   -14.1527     0.0000     2.0000 </r>
       <r>   -14.0645     0.0000     2.0000 </r>
       <r>   -13.9764     0.0000     2.0000 </r>
       <r>   -13.8882     0.0000     2.0000 </r>
       <r>   -13.8001     0.0000     2.0000 </r>
       <r>   -13.7120     0.0000     2.0000 </r>
       <r>   -13.6238     0.0000     2.0000 </r>
       <r>   -13.5357     0.0000     2.0000 </r>
       <r>   -13.4475     0.0000     2.0000 </r>
       <r>   -13.3594     0.0000     2.0000 </r>
       <r>   -13.2712     0.0000     2.0000 </r>
       <r>   -13.1831     0.0000     2.0000 </r>
       <r>   -13.0950     0.0000     2.0000 </r>
       <r>   -13.0068     0.0000     2.0000 </r>
       <r>   -12.9187     0.0000     2.0000 </r>
       <r>   -12.8305     0.0000     2.0000 </r>
       <r>   -12.7424     0.0000     2.0000 </r>
       <r>   -12.6543     0.0000     2.0000 </r>
       <r>   -12.5661     0.0000     2.0000 </r>
       <r>   -12.4780     0.0000     2.0000 </r>
       <r>   -12.3898     0.0000     2.0000 </r>
       <r>   -12.3017     0.0000     2.0000 </r>
       <r>   -12.2135     0.0000     2.0000 </r>
       <r>   -12.1254     0.0000     2.0000 </r>
       <r>   -12.0373     0.1864     2.0164 </r>
       <r>   -11.9491     7.0777     2.6403 </r>
       <r>   -11.8610     4.0565     2.9978 </r>
       <r>   -11.7728     0.0246     3.0000 </r>
       <r>   -11.6847     0.0000     3.0000 </r>
       <r>   -11.5965     0.0000     3.0000 </r>
       <r>   -11.5084     0.0000     3.0000 </r>
       <r>   -11.4203     0.0000     3.0000 </r>
       <r>   -11.3321     0.0000     3.0000 </r>
       <r>   -11.2440     0.0000     3.0000 </r>
       <r>   -11.1558     0.0000     3.0000 </r>
       <r>   -11.0677     0.0000     3.0000 </r>
       <r>   -10.9795     0.0000     3.0000 </r>
       <r>   -10.8914     0.0000     3.0000 </r>
       <r>   -10.8033     0.0000     3.0000 </r>
       <r>   -10.7151     0.0000     3.0000 </r>
       <r>   -10.6270     0.0000     3.0000 </r>
       <r>   -10.5388     0.0000     3.0000 </r>
       <r>   -10.4507     0.0000     3.0000 </r>
       <r>   -10.3625     0.0000     3.0000 </r>
       <r>   -10.2744     0.0000     3.0000 </r>
       <r>   -10.1863     0.0000     3.0000 </r>
       <r>   -10.0981     0.0004     3.0000 </r>
       <r>   -10.0100     1.1073     3.0976 </r>
       <r>    -9.9218    17.0128     4.5972 </r>
       <r>    -9.8337     4.5602     4.9991 </r>
       <r>    -9.7456     0.0099     5.0000 </r>
       <r>    -9.6574     0.0000     5.0000 </r>
       <r>    -9.5693     0.0000     5.0000 </r>
       <r>    -9.4811     0.0000     5.0000 </r>
       <r>    -9.3930     0.0000     5.0000 </r>
       <r>    -9.3048     0.0000     5.0000 </r>
       <r>    -9.2167     0.0000     5.0000 </r>
       <r>    -9.1286     0.0000     5.0000 </r>
       <r>    -9.0404     0.0000     5.0000 </r>
       <r>    -8.9523     0.0000     5.0000 </r>
       <r>    -8.8641     0.0000     5.0000 </r>
       <r>    -8.7760     0.0000     5.0000 </r>
       <r>    -8.6878     0.0000     5.0000 </r>
       <r>    -8.5997     0.0000     5.0000 </r>
       <r>    -8.5116     0.0000     5.0000 </r>
       <r>    -8.4234     0.0000     5.0000 </r>
       <r>    -8.3353     0.0000     5.0000 </r>
       <r>    -8.2471     0.0000     5.0000 </r>
       <r>    -8.1590     0.0000     5.0000 </r>
       <r>    -8.0708     0.0000     5.0000 </r>
       <r>    -7.9827     0.0000     5.0000 </r>
       <r>    -7.8946     0.0000     5.0000 </r>
       <r>    -7.8064     0.0000     5.0000 </r>
       <r>    -7.7183     0.0000     5.0000 </r>
       <r>    -7.6301     0.0000     5.0000 </r>
       <r>    -7.5420     0.0000     5.0000 </r>
       <r>    -7.4538     0.0000     5.0000 </r>
       <r>    -7.3657     0.3697     5.0326 </r>
       <r>    -7.2776    14.1310     6.2781 </r>
       <r>    -7.1894     8.1400     6.9956 </r>
       <r>    -7.1013     0.0498     7.0000 </r>
       <r>    -7.0131     0.0000     7.0000 </r>
       <r>    -6.9250     0.0000     7.0000 </r>
       <r>    -6.8369     0.0000     7.0000 </r>
       <r>    -6.7487     0.0000     7.0000 </r>
       <r>    -6.6606     0.0000     7.0000 </r>
       <r>    -6.5724     0.0000     7.0000 </r>
       <r>    -6.4843     0.0000     7.0000 </r>
       <r>    -6.3961     0.0000     7.0000 </r>
       <r>    -6.3080     0.0000     7.0000 </r>
       <r>    -6.2199     0.0000     7.0000 </r>
       <r>    -6.1317     0.0000     7.0000 </r>
       <r>    -6.0436     0.0000     7.0000 </r>
       <r>    -5.9554     0.0000     7.0000 </r>
       <r>    -5.8673     0.0000     7.0000 </r>
       <r>    -5.7791     0.0000     7.0000 </r>
       <r>    -5.6910     0.0000     7.0000 </r>
       <r>    -5.6029     0.0000     7.0000 </r>
       <r>    -5.5147     0.0000     7.0000 </r>
       <r>    -5.4266     0.0000     7.0000 </r>
       <r>    -5.3384     0.0000     7.0000 </r>
       <r>    -5.2503     0.0000     7.0000 </r>
       <r>    -5.1621     0.0000     7.0000 </r>
       <r>    -5.0740     0.0000     7.0000 </r>
       <r>    -4.9859     0.0000     7.0000 </r>
       <r>    -4.8977     0.0000     7.0000 </r>
       <r>    -4.8096     0.0000     7.0000 </r>
       <r>    -4.7214     0.0000     7.0000 </r>
       <r>    -4.6333     0.0000     7.0000 </r>
       <r>    -4.5451     0.0000     7.0000 </r>
       <r>    -4.4570     0.0000     7.0000 </r>
       <r>    -4.3689     0.0007     7.0001 </r>
       <r>    -4.2807     1.0129     7.0893 </r>
       <r>    -4.1926     8.9085     7.8746 </r>
       <r>    -4.1044     1.4215     7.9999 </r>
       <r>    -4.0163     0.0015     8.0000 </r>
       <r>    -3.9281     0.0000     8.0000 </r>
       <r>    -3.8400     0.0000     8.0000 </r>
       <r>    -3.7519     0.0000     8.0000 </r>
       <r>    -3.6637     0.0000     8.0000 </r>
       <r>    -3.5756     0.0000     8.0000 </r>
       <r>    -3.4874     0.0000     8.0000 </r>
       <r>    -3.3993     0.0000     8.0000 </r>
       <r>    -3.3112     0.0000     8.0000 </r>
       <r>    -3.2230     0.0000     8.0000 </r>
       <r>    -3.1349     0.0000     8.0000 </r>
       <r>    -3.0467     0.0000     8.0000 </r>
       <r>    -2.9586     0.0000     8.0000 </r>
       <r>    -2.8704     0.0000     8.0000 </r>
       <r>    -2.7823     0.0000     8.0000 </r>
       <r>    -2.6942     0.0000     8.0000 </r>
       <r>    -2.6060     0.0000     8.0000 </r>
       <r>    -2.5179     0.0000     8.0000 </r>
       <r>    -2.4297     0.0000     8.0000 </r>
       <r>    -2.3416     0.0000     8.0000 </r>
       <r>    -2.2534     0.0000     8.0000 </r>
       <r>    -2.1653     0.0000     8.0000 </r>
       <r>    -2.0772     0.0000     8.0000 </r>
       <r>    -1.9890     0.0000     8.0000 </r>
       <r>    -1.9009     0.0000     8.0000 </r>
       <r>    -1.8127     0.0000     8.0000 </r>
       <r>    -1.7246     0.0000     8.0000 </r>
       <r>    -1.6364     0.0000     8.0000 </r>
       <r>    -1.5483     0.0000     8.0000 </r>
       <r>    -1.4602     0.0000     8.0000 </r>
       <r>    -1.3720     0.0000     8.0000 </r>
       <r>    -1.2839     0.0000     8.0000 </r>
       <r>    -1.1957     0.0000     8.0000 </r>
       <r>    -1.1076     0.0000     8.0000 </r>
       <r>    -1.0194     0.0000     8.0000 </r>
       <r>    -0.9313     0.0000     8.0000 </r>
       <r>    -0.8432     0.0000     8.0000 </r>
       <r>    -0.7550     0.0000     8.0000 </r>
       <r>    -0.6669     0.0000     8.0000 </r>
       <r>    -0.5787     0.0000     8.0000 </r>
       <r>    -0.4906     0.0337     8.0030 </r>
       <r>    -0.4025     4.4822     8.3980 </r>
       <r>    -0.3143     6.6851     8.9873 </r>
       <r>    -0.2262     0.1443     9.0000 </r>
       <r>    -0.1380     0.0000     9.0000 </r>
       <r>    -0.0499     0.0675     9.0059 </r>
       <r>     0.0383     5.5450     9.4947 </r>
       <r>     0.1264    15.6202    10.8715 </r>
       <r>     0.2145    44.3989    14.7849 </r>
       <r>     0.3027    40.0209    18.3125 </r>
       <r>     0.3908    89.2083    26.1755 </r>
       <r>     0.4790    35.3987    29.2956 </r>
       <r>     0.5671    29.7138    31.9147 </r>
       <r>     0.6553     0.9677    32.0000 </r>
       <r>     0.7434     0.0003    32.0000 </r>
       <r>     0.8315     0.0000    32.0000 </r>
       <r>     0.9197     0.0000    32.0000 </r>
       <r>     1.0078     0.0000    32.0000 </r>
       <r>     1.0960     0.0000    32.0000 </r>
       <r>     1.1841     0.0000    32.0000 </r>
       <r>     1.2723     0.0000    32.0000 </r>
       <r>     1.3604     0.0000    32.0000 </r>
       <r>     1.4485     0.0000    32.0000 </r>
       <r>     1.5367     0.0000    32.0000 </r>
       <r>     1.6248     0.0000    32.0000 </r>
       <r>     1.7130     0.0000    32.0000 </r>
      </set>
     </set>
    </array>
   </total>
   <partial>
    <array>
     <dimension dim="1">gridpoints</dimension>
     <dimension dim="2">spin</dimension>
     <dimension dim="3">ion</dimension>
     <field>energy</field>
     <field>    s</field>
     <field>   py</field>
     <field>   pz</field>
     <field>   px</field>
     <field>  dxy</field>
     <field>  dyz</field>
     <field>  dz2</field>
     <field>  dxz</field>
     <field>x2-y2</field>
     <set>
      <set comment="ion 1">
       <set comment="spin 1">
        <r>   -24.7298     0.0000     0.0000     0.0000     0.0000     0.0000     0.0000     0.0000     0.0000     0.0000 </r>
        <r>   -24.6416     0.0000     0.0000     0.0000     0.0000     0.0000     0.0000     0.0000     0.0000     0.0000 </r>
        <r>   -24.5535     0.0000     0.0000     0.0000     0.0000     0.0000     0.0000     0.0000     0.0000     0.0000 </r>
        <r>   -24.4653     0.0000     0.0000     0.0000     0.0000     0.0000     0.0000     0.0000     0.0000     0.0000 </r>
        <r>   -24.3772     0.0000     0.0000     0.0000     0.0000     0.0000     0.0000     0.0000     0.0000     0.0000 </r>
        <r>   -24.2891     0.0000     0.0000     0.0000     0.0000     0.0000     0.0000     0.0000     0.0000     0.0000 </r>
        <r>   -24.2009     0.0000     0.0000     0.0000     0.0000     0.0000     0.0000     0.0000     0.0000     0.0000 </r>
        <r>   -24.1128     0.0000     0.0000     0.0000     0.0000     0.0000     0.0000     0.0000     0.0000     0.0000 </r>
        <r>   -24.0246     0.0000     0.0000     0.0000     0.0000     0.0000     0.0000     0.0000     0.0000     0.0000 </r>
        <r>   -23.9365     0.0000     0.0000     0.0000     0.0000     0.0000     0.0000     0.0000     0.0000     0.0000 </r>
        <r>   -23.8483     0.0000     0.0000     0.0000     0.0000     0.0000     0.0000     0.0000     0.0000     0.0000 </r>
        <r>   -23.7602     0.0000     0.0000     0.0000     0.0000     0.0000     0.0000     0.0000     0.0000     0.0000 </r>
        <r>   -23.6721     0.0001     0.0000     0.0000     0.0000     0.0000     0.0000     0.0000     0.0000     0.0000 </r>
        <r>   -23.5839     0.2397     0.0000     0.0193     0.0000     0.0000     0.0000     0.0000     0.0000     0.0000 </r>
        <r>   -23.4958     3.2673     0.0000     0.2634     0.0000     0.0000     0.0000     0.0000     0.0000     0.0000 </r>
        <r>   -23.4076     0.7866     0.0000     0.0634     0.0000     0.0000     0.0000     0.0000     0.0000     0.0000 </r>
        <r>   -23.3195     0.0015     0.0000     0.0001     0.0000     0.0000     0.0000     0.0000     0.0000     0.0000 </r>
        <r>   -23.2313     0.0000     0.0000     0.0000     0.0000     0.0000     0.0000     0.0000     0.0000     0.0000 </r>
        <r>   -23.1432     0.0000     0.0000     0.0000     0.0000     0.0000     0.0000     0.0000     0.0000     0.0000 </r>
        <r>   -23.0551     0.0000     0.0000     0.0000     0.0000     0.0000     0.0000     0.0000     0.0000     0.0000 </r>
        <r>   -22.9669     0.0000     0.0000     0.0000     0.0000     0.0000     0.0000     0.0000     0.0000     0.0000 </r>
        <r>   -22.8788     0.0000     0.0000     0.0000     0.0000     0.0000     0.0000     0.0000     0.0000     0.0000 </r>
        <r>   -22.7906     0.0000     0.0000     0.0000     0.0000     0.0000     0.0000     0.0000     0.0000     0.0000 </r>
        <r>   -22.7025     0.0000     0.0000     0.0000     0.0000     0.0000     0.0000     0.0000     0.0000     0.0000 </r>
        <r>   -22.6143     0.0000     0.0000     0.0000     0.0000     0.0000     0.0000     0.0000     0.0000     0.0000 </r>
        <r>   -22.5262     0.0000     0.0000     0.0000     0.0000     0.0000     0.0000     0.0000     0.0000     0.0000 </r>
        <r>   -22.4381     0.0000     0.0000     0.0000     0.0000     0.0000     0.0000     0.0000     0.0000     0.0000 </r>
        <r>   -22.3499     0.0000     0.0000     0.0000     0.0000     0.0000     0.0000     0.0000     0.0000     0.0000 </r>
        <r>   -22.2618     0.0000     0.0000     0.0000     0.0000     0.0000     0.0000     0.0000     0.0000     0.0000 </r>
        <r>   -22.1736     0.0000     0.0000     0.0000     0.0000     0.0000     0.0000     0.0000     0.0000     0.0000 </r>
        <r>   -22.0855     0.0000     0.0000     0.0000     0.0000     0.0000     0.0000     0.0000     0.0000     0.0000 </r>
        <r>   -21.9974     0.0000     0.0000     0.0000     0.0000     0.0000     0.0000     0.0000     0.0000     0.0000 </r>
        <r>   -21.9092     0.0000     0.0000     0.0000     0.0000     0.0000     0.0000     0.0000     0.0000     0.0000 </r>
        <r>   -21.8211     0.0000     0.0000     0.0000     0.0000     0.0000     0.0000     0.0000     0.0000     0.0000 </r>
        <r>   -21.7329     0.0000     0.0000     0.0000     0.0000     0.0000     0.0000     0.0000     0.0000     0.0000 </r>
        <r>   -21.6448     0.0000     0.0000     0.0000     0.0000     0.0000     0.0000     0.0000     0.0000     0.0000 </r>
        <r>   -21.5566     0.0000     0.0000     0.0000     0.0000     0.0000     0.0000     0.0000     0.0000     0.0000 </r>
        <r>   -21.4685     0.0000     0.0000     0.0000     0.0000     0.0000     0.0000     0.0000     0.0000     0.0000 </r>
        <r>   -21.3804     0.0000     0.0000     0.0000     0.0000     0.0000     0.0000     0.0000     0.0000     0.0000 </r>
        <r>   -21.2922     0.0000     0.0000     0.0000     0.0000     0.0000     0.0000     0.0000     0.0000     0.0000 </r>
        <r>   -21.2041     0.0000     0.0000     0.0000     0.0000     0.0000     0.0000     0.0000     0.0000     0.0000 </r>
        <r>   -21.1159     0.0000     0.0000     0.0000     0.0000     0.0000     0.0000     0.0000     0.0000     0.0000 </r>
        <r>   -21.0278     0.0000     0.0000     0.0000     0.0000     0.0000     0.0000     0.0000     0.0000     0.0000 </r>
        <r>   -20.9396     0.0000     0.0000     0.0000     0.0000     0.0000     0.0000     0.0000     0.0000     0.0000 </r>
        <r>   -20.8515     0.0000     0.0000     0.0000     0.0000     0.0000     0.0000     0.0000     0.0000     0.0000 </r>
        <r>   -20.7634     0.0000     0.0000     0.0000     0.0000     0.0000     0.0000     0.0000     0.0000     0.0000 </r>
        <r>   -20.6752     0.0000     0.0000     0.0000     0.0000     0.0000     0.0000     0.0000     0.0000     0.0000 </r>
        <r>   -20.5871     0.0000     0.0000     0.0000     0.0000     0.0000     0.0000     0.0000     0.0000     0.0000 </r>
        <r>   -20.4989     0.0000     0.0000     0.0000     0.0000     0.0000     0.0000     0.0000     0.0000     0.0000 </r>
        <r>   -20.4108     0.0000     0.0000     0.0000     0.0000     0.0000     0.0000     0.0000     0.0000     0.0000 </r>
        <r>   -20.3226     0.0000     0.0000     0.0000     0.0000     0.0000     0.0000     0.0000     0.0000     0.0000 </r>
        <r>   -20.2345     0.0000     0.0000     0.0000     0.0000     0.0000     0.0000     0.0000     0.0000     0.0000 </r>
        <r>   -20.1464     0.0000     0.0000     0.0000     0.0000     0.0000     0.0000     0.0000     0.0000     0.0000 </r>
        <r>   -20.0582     0.0000     0.0000     0.0000     0.0000     0.0000     0.0000     0.0000     0.0000     0.0000 </r>
        <r>   -19.9701     0.0000     0.0000     0.0000     0.0000     0.0000     0.0000     0.0000     0.0000     0.0000 </r>
        <r>   -19.8819     0.0000     0.0000     0.0000     0.0000     0.0000     0.0000     0.0000     0.0000     0.0000 </r>
        <r>   -19.7938     0.0000     0.0000     0.0000     0.0000     0.0000     0.0000     0.0000     0.0000     0.0000 </r>
        <r>   -19.7056     0.0000     0.0000     0.0000     0.0000     0.0000     0.0000     0.0000     0.0000     0.0000 </r>
        <r>   -19.6175     0.0000     0.0000     0.0000     0.0000     0.0000     0.0000     0.0000     0.0000     0.0000 </r>
        <r>   -19.5294     0.0000     0.0000     0.0000     0.0000     0.0000     0.0000     0.0000     0.0000     0.0000 </r>
        <r>   -19.4412     0.0000     0.0000     0.0000     0.0000     0.0000     0.0000     0.0000     0.0000     0.0000 </r>
        <r>   -19.3531     0.1007     0.0000     0.0028     0.0000     0.0000     0.0000     0.0000     0.0000     0.0000 </r>
        <r>   -19.2649     3.0223     0.0000     0.0838     0.0000     0.0000     0.0000     0.0000     0.0000     0.0000 </r>
        <r>   -19.1768     1.4323     0.0000     0.0397     0.0000     0.0000     0.0000     0.0000     0.0000     0.0000 </r>
        <r>   -19.0887     0.0067     0.0000     0.0002     0.0000     0.0000     0.0000     0.0000     0.0000     0.0000 </r>
        <r>   -19.0005     0.0000     0.0000     0.0000     0.0000     0.0000     0.0000     0.0000     0.0000     0.0000 </r>
        <r>   -18.9124     0.0000     0.0000     0.0000     0.0000     0.0000     0.0000     0.0000     0.0000     0.0000 </r>
        <r>   -18.8242     0.0000     0.0000     0.0000     0.0000     0.0000     0.0000     0.0000     0.0000     0.0000 </r>
        <r>   -18.7361     0.0000     0.0000     0.0000     0.0000     0.0000     0.0000     0.0000     0.0000     0.0000 </r>
        <r>   -18.6479     0.0000     0.0000     0.0000     0.0000     0.0000     0.0000     0.0000     0.0000     0.0000 </r>
        <r>   -18.5598     0.0000     0.0000     0.0000     0.0000     0.0000     0.0000     0.0000     0.0000     0.0000 </r>
        <r>   -18.4717     0.0000     0.0000     0.0000     0.0000     0.0000     0.0000     0.0000     0.0000     0.0000 </r>
        <r>   -18.3835     0.0000     0.0000     0.0000     0.0000     0.0000     0.0000     0.0000     0.0000     0.0000 </r>
        <r>   -18.2954     0.0000     0.0000     0.0000     0.0000     0.0000     0.0000     0.0000     0.0000     0.0000 </r>
        <r>   -18.2072     0.0000     0.0000     0.0000     0.0000     0.0000     0.0000     0.0000     0.0000     0.0000 </r>
        <r>   -18.1191     0.0000     0.0000     0.0000     0.0000     0.0000     0.0000     0.0000     0.0000     0.0000 </r>
        <r>   -18.0309     0.0000     0.0000     0.0000     0.0000     0.0000     0.0000     0.0000     0.0000     0.0000 </r>
        <r>   -17.9428     0.0000     0.0000     0.0000     0.0000     0.0000     0.0000     0.0000     0.0000     0.0000 </r>
        <r>   -17.8547     0.0000     0.0000     0.0000     0.0000     0.0000     0.0000     0.0000     0.0000     0.0000 </r>
        <r>   -17.7665     0.0000     0.0000     0.0000     0.0000     0.0000     0.0000     0.0000     0.0000     0.0000 </r>
        <r>   -17.6784     0.0000     0.0000     0.0000     0.0000     0.0000     0.0000     0.0000     0.0000     0.0000 </r>
[...]
        <r>     0.8315     0.0000     0.0000     0.0000     0.0000     0.0000     0.0000     0.0000     0.0000     0.0000 </r>
        <r>     0.9197     0.0000     0.0000     0.0000     0.0000     0.0000     0.0000     0.0000     0.0000     0.0000 </r>
        <r>     1.0078     0.0000     0.0000     0.0000     0.0000     0.0000     0.0000     0.0000     0.0000     0.0000 </r>
        <r>     1.0960     0.0000     0.0000     0.0000     0.0000     0.0000     0.0000     0.0000     0.0000     0.0000 </r>
        <r>     1.1841     0.0000     0.0000     0.0000     0.0000     0.0000     0.0000     0.0000     0.0000     0.0000 </r>
        <r>     1.2723     0.0000     0.0000     0.0000     0.0000     0.0000     0.0000     0.0000     0.0000     0.0000 </r>
        <r>     1.3604     0.0000     0.0000     0.0000     0.0000     0.0000     0.0000     0.0000     0.0000     0.0000 </r>
        <r>     1.4485     0.0000     0.0000     0.0000     0.0000     0.0000     0.0000     0.0000     0.0000     0.0000 </r>
        <r>     1.5367     0.0000     0.0000     0.0000     0.0000     0.0000     0.0000     0.0000     0.0000     0.0000 </r>
        <r>     1.6248     0.0000     0.0000     0.0000     0.0000     0.0000     0.0000     0.0000     0.0000     0.0000 </r>
        <r>     1.7130     0.0000     0.0000     0.0000     0.0000     0.0000     0.0000     0.0000     0.0000     0.0000 </r>
       </set>
      </set>
     </set>
    </array>
   </partial>
  </dos>
  <projected>
   <eigenvalues>
    <array>
     <dimension dim="1">band</dimension>
     <dimension dim="2">kpoint</dimension>
     <dimension dim="3">spin</dimension>
     <field>eigene</field>
     <field>occ</field>
     <set>
      <set comment="spin 1">
       <set comment="kpoint 1">
        <r>  -23.5277    1.0000 </r>
        <r>  -19.2819    1.0000 </r>
        <r>  -11.9618    1.0000 </r>
        <r>   -9.9517    1.0000 </r>
        <r>   -9.9516    1.0000 </r>
        <r>   -7.2903    1.0000 </r>
        <r>   -7.2903    1.0000 </r>
        <r>   -4.2317    0.0000 </r>
        <r>   -0.3952    0.0000 </r>
        <r>    0.0021    0.0000 </r>
        <r>    0.1159    0.0000 </r>
        <r>    0.1381    0.0000 </r>
        <r>    0.1382    0.0000 </r>
        <r>    0.1549    0.0000 </r>
        <r>    0.1591    0.0000 </r>
        <r>    0.1896    0.0000 </r>
        <r>    0.2415    0.0000 </r>
        <r>    0.2728    0.0000 </r>
        <r>    0.2729    0.0000 </r>
        <r>    0.3140    0.0000 </r>
        <r>    0.3179    0.0000 </r>
        <r>    0.3181    0.0000 </r>
        <r>    0.3228    0.0000 </r>
        <r>    0.3227    0.0000 </r>
        <r>    0.3228    0.0000 </r>
        <r>    0.3245    0.0000 </r>
        <r>    0.3275    0.0000 </r>
        <r>    0.4058    0.0000 </r>
        <r>    0.4449    0.0000 </r>
        <r>    0.4524    0.0000 </r>
        <r>    0.4524    0.0000 </r>
        <r>    0.4732    0.0000 </r>
       </set>
      </set>
      <set comment="spin 2">
       <set comment="kpoint 1">
        <r>  -23.5278    1.0000 </r>
        <r>  -19.2820    1.0000 </r>
        <r>  -11.9618    1.0000 </r>
        <r>   -9.9514    1.0000 </r>
        <r>   -9.9514    1.0000 </r>
        <r>   -7.2902    1.0000 </r>
        <r>   -7.2901    1.0000 </r>
        <r>   -4.2332    0.0000 </r>
        <r>   -0.3933    0.0000 </r>
        <r>    0.0390    0.0000 </r>
        <r>    0.1354    0.0000 </r>
        <r>    0.1622    0.0000 </r>
        <r>    0.1623    0.0000 </r>
        <r>    0.1734    0.0000 </r>
        <r>    0.1769    0.0000 </r>
        <r>    0.2478    0.0000 </r>
        <r>    0.2862    0.0000 </r>
        <r>    0.3104    0.0000 </r>
        <r>    0.3104    0.0000 </r>
        <r>    0.3396    0.0000 </r>
        <r>    0.3426    0.0000 </r>
        <r>    0.3449    0.0000 </r>
        <r>    0.3449    0.0000 </r>
        <r>    0.3483    0.0000 </r>
        <r>    0.3492    0.0000 </r>
        <r>    0.3519    0.0000 </r>
        <r>    0.3520    0.0000 </r>
        <r>    0.4504    0.0000 </r>
        <r>    0.4838    0.0000 </r>
        <r>    0.4844    0.0000 </r>
        <r>    0.4844    0.0000 </r>
        <r>    0.5110    0.0000 </r>
       </set>
      </set>
     </set>
    </array>
   </eigenvalues>
   <array>
    <dimension dim="1">ion</dimension>
    <dimension dim="2">band</dimension>
    <dimension dim="3">kpoint</dimension>
    <dimension dim="4">spin</dimension>
    <field>    s</field>
    <field>   py</field>
    <field>   pz</field>
    <field>   px</field>
    <field>  dxy</field>
    <field>  dyz</field>
    <field>  dz2</field>
    <field>  dxz</field>
    <field>x2-y2</field>
    <set>
     <set comment="spin1">
      <set comment="kpoint 1">
       <set comment="band 1">
        <r>  0.3786  0.0000  0.0305  0.0000  0.0000  0.0000  0.0000  0.0000  0.0000 </r>
        <r>  0.3786  0.0000  0.0305  0.0000  0.0000  0.0000  0.0000  0.0000  0.0000 </r>
       </set>
       <set comment="band 2">
        <r>  0.4021  0.0000  0.0111  0.0000  0.0000  0.0000  0.0000  0.0000  0.0000 </r>
        <r>  0.4021  0.0000  0.0111  0.0000  0.0000  0.0000  0.0000  0.0000  0.0000 </r>
       </set>
       <set comment="band 3">
        <r>  0.0267  0.0000  0.3445  0.0000  0.0000  0.0000  0.0000  0.0000  0.0000 </r>
        <r>  0.0267  0.0000  0.3445  0.0000  0.0000  0.0000  0.0000  0.0000  0.0000 </r>
       </set>
       <set comment="band 4">
        <r>  0.0000  0.3132  0.0000  0.0000  0.0000  0.0000  0.0000  0.0000  0.0000 </r>
        <r>  0.0000  0.3132  0.0000  0.0000  0.0000  0.0000  0.0000  0.0000  0.0000 </r>
       </set>
       <set comment="band 5">
        <r>  0.0000  0.0000  0.0000  0.3132  0.0000  0.0000  0.0000  0.0000  0.0000 </r>
        <r>  0.0000  0.0000  0.0000  0.3132  0.0000  0.0000  0.0000  0.0000  0.0000 </r>
       </set>
       <set comment="band 6">
        <r>  0.0000  0.3417  0.0000  0.0000  0.0000  0.0000  0.0000  0.0000  0.0000 </r>
        <r>  0.0000  0.3417  0.0000  0.0000  0.0000  0.0000  0.0000  0.0000  0.0000 </r>
       </set>
       <set comment="band 7">
        <r>  0.0000  0.0000  0.0000  0.3417  0.0000  0.0000  0.0000  0.0000  0.0000 </r>
        <r>  0.0000  0.0000  0.0000  0.3417  0.0000  0.0000  0.0000  0.0000  0.0000 </r>
       </set>
       <set comment="band 8">
        <r>  0.0251  0.0000  0.2958  0.0000  0.0000  0.0000  0.0000  0.0000  0.0000 </r>
        <r>  0.0251  0.0000  0.2958  0.0000  0.0000  0.0000  0.0000  0.0000  0.0000 </r>
       </set>
       <set comment="band 9">
        <r>  0.0094  0.0000  0.0016  0.0000  0.0000  0.0000  0.0000  0.0000  0.0000 </r>
        <r>  0.0094  0.0000  0.0016  0.0000  0.0000  0.0000  0.0000  0.0000  0.0000 </r>
       </set>
       <set comment="band 10">
        <r>  0.0003  0.0000  0.0000  0.0000  0.0000  0.0000  0.0000  0.0000  0.0000 </r>
        <r>  0.0003  0.0000  0.0000  0.0000  0.0000  0.0000  0.0000  0.0000  0.0000 </r>
       </set>
       <set comment="band 11">
        <r>  0.0001  0.0000  0.0030  0.0000  0.0000  0.0000  0.0000  0.0000  0.0000 </r>
        <r>  0.0001  0.0000  0.0030  0.0000  0.0000  0.0000  0.0000  0.0000  0.0000 </r>
       </set>
       <set comment="band 12">
        <r>  0.0000  0.0000  0.0000  0.0003  0.0000  0.0000  0.0000  0.0000  0.0000 </r>
        <r>  0.0000  0.0000  0.0000  0.0003  0.0000  0.0000  0.0000  0.0000  0.0000 </r>
       </set>
       <set comment="band 13">
        <r>  0.0000  0.0003  0.0000  0.0000  0.0000  0.0000  0.0000  0.0000  0.0000 </r>
        <r>  0.0000  0.0003  0.0000  0.0000  0.0000  0.0000  0.0000  0.0000  0.0000 </r>
       </set>
       <set comment="band 14">
        <r>  0.0000  0.0000  0.0000  0.0000  0.0000  0.0000  0.0000  0.0000  0.0000 </r>
        <r>  0.0000  0.0000  0.0000  0.0000  0.0000  0.0000  0.0000  0.0000  0.0000 </r>
       </set>
       <set comment="band 15">
        <r>  0.0000  0.0000  0.0000  0.0000  0.0000  0.0000  0.0000  0.0000  0.0000 </r>
        <r>  0.0000  0.0000  0.0000  0.0000  0.0000  0.0000  0.0000  0.0000  0.0000 </r>
       </set>
       <set comment="band 16">
        <r>  0.0004  0.0000  0.0000  0.0000  0.0000  0.0000  0.0000  0.0000  0.0000 </r>
        <r>  0.0004  0.0000  0.0000  0.0000  0.0000  0.0000  0.0000  0.0000  0.0000 </r>
       </set>
       <set comment="band 17">
        <r>  0.0001  0.0000  0.0032  0.0000  0.0000  0.0000  0.0000  0.0000  0.0000 </r>
        <r>  0.0001  0.0000  0.0032  0.0000  0.0000  0.0000  0.0000  0.0000  0.0000 </r>
       </set>
       <set comment="band 18">
        <r>  0.0000  0.0000  0.0000  0.0009  0.0000  0.0000  0.0000  0.0000  0.0000 </r>
        <r>  0.0000  0.0000  0.0000  0.0009  0.0000  0.0000  0.0000  0.0000  0.0000 </r>
       </set>
       <set comment="band 19">
        <r>  0.0000  0.0009  0.0000  0.0000  0.0000  0.0000  0.0000  0.0000  0.0000 </r>
        <r>  0.0000  0.0009  0.0000  0.0000  0.0000  0.0000  0.0000  0.0000  0.0000 </r>
       </set>
       <set comment="band 20">
        <r>  0.0000  0.0000  0.0000  0.0000  0.0000  0.0000  0.0000  0.0000  0.0000 </r>
        <r>  0.0000  0.0000  0.0000  0.0000  0.0000  0.0000  0.0000  0.0000  0.0000 </r>
       </set>
       <set comment="band 21">
        <r>  0.0000  0.0000  0.0000  0.0000  0.0000  0.0000  0.0000  0.0000  0.0000 </r>
        <r>  0.0000  0.0000  0.0000  0.0000  0.0000  0.0000  0.0000  0.0000  0.0000 </r>
       </set>
       <set comment="band 22">
        <r>  0.0000  0.0000  0.0000  0.0000  0.0000  0.0000  0.0000  0.0000  0.0000 </r>
        <r>  0.0000  0.0000  0.0000  0.0000  0.0000  0.0000  0.0000  0.0000  0.0000 </r>
       </set>
       <set comment="band 23">
        <r>  0.0000  0.0000  0.0000  0.0000  0.0000  0.0000  0.0000  0.0000  0.0000 </r>
        <r>  0.0000  0.0000  0.0000  0.0000  0.0000  0.0000  0.0000  0.0000  0.0000 </r>
       </set>
       <set comment="band 24">
        <r>  0.0000  0.0000  0.0000  0.0000  0.0000  0.0000  0.0000  0.0000  0.0000 </r>
        <r>  0.0000  0.0000  0.0000  0.0000  0.0000  0.0000  0.0000  0.0000  0.0000 </r>
       </set>
       <set comment="band 25">
        <r>  0.0000  0.0000  0.0000  0.0000  0.0000  0.0000  0.0000  0.0000  0.0000 </r>
        <r>  0.0000  0.0000  0.0000  0.0000  0.0000  0.0000  0.0000  0.0000  0.0000 </r>
       </set>
       <set comment="band 26">
        <r>  0.0000  0.0000  0.0000  0.0000  0.0000  0.0000  0.0000  0.0000  0.0000 </r>
        <r>  0.0000  0.0000  0.0000  0.0000  0.0000  0.0000  0.0000  0.0000  0.0000 </r>
       </set>
       <set comment="band 27">
        <r>  0.0000  0.0000  0.0000  0.0000  0.0000  0.0000  0.0000  0.0000  0.0000 </r>
        <r>  0.0000  0.0000  0.0000  0.0000  0.0000  0.0000  0.0000  0.0000  0.0000 </r>
       </set>
       <set comment="band 28">
        <r>  0.0006  0.0000  0.0000  0.0000  0.0000  0.0000  0.0000  0.0000  0.0000 </r>
        <r>  0.0006  0.0000  0.0000  0.0000  0.0000  0.0000  0.0000  0.0000  0.0000 </r>
       </set>
       <set comment="band 29">
        <r>  0.0001  0.0000  0.0021  0.0000  0.0000  0.0000  0.0000  0.0000  0.0000 </r>
        <r>  0.0001  0.0000  0.0021  0.0000  0.0000  0.0000  0.0000  0.0000  0.0000 </r>
       </set>
       <set comment="band 30">
        <r>  0.0000  0.0000  0.0000  0.0008  0.0000  0.0000  0.0000  0.0000  0.0000 </r>
        <r>  0.0000  0.0000  0.0000  0.0008  0.0000  0.0000  0.0000  0.0000  0.0000 </r>
       </set>
       <set comment="band 31">
        <r>  0.0000  0.0008  0.0000  0.0000  0.0000  0.0000  0.0000  0.0000  0.0000 </r>
        <r>  0.0000  0.0008  0.0000  0.0000  0.0000  0.0000  0.0000  0.0000  0.0000 </r>
       </set>
       <set comment="band 32">
        <r>  0.0000  0.0000  0.0000  0.0000  0.0000  0.0000  0.0000  0.0000  0.0000 </r>
        <r>  0.0000  0.0000  0.0000  0.0000  0.0000  0.0000  0.0000  0.0000  0.0000 </r>
       </set>
      </set>
     </set>
     <set comment="spin2">
      <set comment="kpoint 1">
       <set comment="band 1">
        <r>  0.3786  0.0000  0.0305  0.0000  0.0000  0.0000  0.0000  0.0000  0.0000 </r>
        <r>  0.3786  0.0000  0.0305  0.0000  0.0000  0.0000  0.0000  0.0000  0.0000 </r>
       </set>
       <set comment="band 2">
        <r>  0.4021  0.0000  0.0111  0.0000  0.0000  0.0000  0.0000  0.0000  0.0000 </r>
        <r>  0.4021  0.0000  0.0111  0.0000  0.0000  0.0000  0.0000  0.0000  0.0000 </r>
       </set>
       <set comment="band 3">
        <r>  0.0267  0.0000  0.3445  0.0000  0.0000  0.0000  0.0000  0.0000  0.0000 </r>
        <r>  0.0267  0.0000  0.3445  0.0000  0.0000  0.0000  0.0000  0.0000  0.0000 </r>
       </set>
       <set comment="band 4">
        <r>  0.0000  0.3132  0.0000  0.0000  0.0000  0.0000  0.0000  0.0000  0.0000 </r>
        <r>  0.0000  0.3132  0.0000  0.0000  0.0000  0.0000  0.0000  0.0000  0.0000 </r>
       </set>
       <set comment="band 5">
        <r>  0.0000  0.0000  0.0000  0.3132  0.0000  0.0000  0.0000  0.0000  0.0000 </r>
        <r>  0.0000  0.0000  0.0000  0.3132  0.0000  0.0000  0.0000  0.0000  0.0000 </r>
       </set>
       <set comment="band 6">
        <r>  0.0000  0.3417  0.0000  0.0000  0.0000  0.0000  0.0000  0.0000  0.0000 </r>
        <r>  0.0000  0.3417  0.0000  0.0000  0.0000  0.0000  0.0000  0.0000  0.0000 </r>
       </set>
       <set comment="band 7">
        <r>  0.0000  0.0000  0.0000  0.3417  0.0000  0.0000  0.0000  0.0000  0.0000 </r>
        <r>  0.0000  0.0000  0.0000  0.3417  0.0000  0.0000  0.0000  0.0000  0.0000 </r>
       </set>
       <set comment="band 8">
        <r>  0.0251  0.0000  0.2959  0.0000  0.0000  0.0000  0.0000  0.0000  0.0000 </r>
        <r>  0.0251  0.0000  0.2959  0.0000  0.0000  0.0000  0.0000  0.0000  0.0000 </r>
       </set>
       <set comment="band 9">
        <r>  0.0094  0.0000  0.0016  0.0000  0.0000  0.0000  0.0000  0.0000  0.0000 </r>
        <r>  0.0094  0.0000  0.0016  0.0000  0.0000  0.0000  0.0000  0.0000  0.0000 </r>
       </set>
       <set comment="band 10">
        <r>  0.0003  0.0000  0.0000  0.0000  0.0000  0.0000  0.0000  0.0000  0.0000 </r>
        <r>  0.0003  0.0000  0.0000  0.0000  0.0000  0.0000  0.0000  0.0000  0.0000 </r>
       </set>
       <set comment="band 11">
        <r>  0.0002  0.0000  0.0036  0.0000  0.0000  0.0000  0.0000  0.0000  0.0000 </r>
        <r>  0.0002  0.0000  0.0036  0.0000  0.0000  0.0000  0.0000  0.0000  0.0000 </r>
       </set>
       <set comment="band 12">
        <r>  0.0000  0.0000  0.0000  0.0005  0.0000  0.0000  0.0000  0.0000  0.0000 </r>
        <r>  0.0000  0.0000  0.0000  0.0005  0.0000  0.0000  0.0000  0.0000  0.0000 </r>
       </set>
       <set comment="band 13">
        <r>  0.0000  0.0005  0.0000  0.0000  0.0000  0.0000  0.0000  0.0000  0.0000 </r>
        <r>  0.0000  0.0005  0.0000  0.0000  0.0000  0.0000  0.0000  0.0000  0.0000 </r>
       </set>
       <set comment="band 14">
        <r>  0.0000  0.0000  0.0000  0.0000  0.0000  0.0000  0.0000  0.0000  0.0000 </r>
        <r>  0.0000  0.0000  0.0000  0.0000  0.0000  0.0000  0.0000  0.0000  0.0000 </r>
       </set>
       <set comment="band 15">
        <r>  0.0000  0.0000  0.0000  0.0000  0.0000  0.0000  0.0000  0.0000  0.0000 </r>
        <r>  0.0000  0.0000  0.0000  0.0000  0.0000  0.0000  0.0000  0.0000  0.0000 </r>
       </set>
       <set comment="band 16">
        <r>  0.0005  0.0000  0.0000  0.0000  0.0000  0.0000  0.0000  0.0000  0.0000 </r>
        <r>  0.0005  0.0000  0.0000  0.0000  0.0000  0.0000  0.0000  0.0000  0.0000 </r>
       </set>
       <set comment="band 17">
        <r>  0.0001  0.0000  0.0031  0.0000  0.0000  0.0000  0.0000  0.0000  0.0000 </r>
        <r>  0.0001  0.0000  0.0031  0.0000  0.0000  0.0000  0.0000  0.0000  0.0000 </r>
       </set>
       <set comment="band 18">
        <r>  0.0000  0.0000  0.0000  0.0009  0.0000  0.0000  0.0000  0.0000  0.0000 </r>
        <r>  0.0000  0.0000  0.0000  0.0009  0.0000  0.0000  0.0000  0.0000  0.0000 </r>
       </set>
       <set comment="band 19">
        <r>  0.0000  0.0009  0.0000  0.0000  0.0000  0.0000  0.0000  0.0000  0.0000 </r>
        <r>  0.0000  0.0009  0.0000  0.0000  0.0000  0.0000  0.0000  0.0000  0.0000 </r>
       </set>
       <set comment="band 20">
        <r>  0.0000  0.0000  0.0000  0.0000  0.0000  0.0000  0.0000  0.0000  0.0000 </r>
        <r>  0.0000  0.0000  0.0000  0.0000  0.0000  0.0000  0.0000  0.0000  0.0000 </r>
       </set>
       <set comment="band 21">
        <r>  0.0000  0.0000  0.0000  0.0000  0.0000  0.0000  0.0000  0.0000  0.0000 </r>
        <r>  0.0000  0.0000  0.0000  0.0000  0.0000  0.0000  0.0000  0.0000  0.0000 </r>
       </set>
       <set comment="band 22">
        <r>  0.0000  0.0000  0.0000  0.0000  0.0000  0.0000  0.0000  0.0000  0.0000 </r>
        <r>  0.0000  0.0000  0.0000  0.0000  0.0000  0.0000  0.0000  0.0000  0.0000 </r>
       </set>
       <set comment="band 23">
        <r>  0.0000  0.0000  0.0000  0.0000  0.0000  0.0000  0.0000  0.0000  0.0000 </r>
        <r>  0.0000  0.0000  0.0000  0.0000  0.0000  0.0000  0.0000  0.0000  0.0000 </r>
       </set>
       <set comment="band 24">
        <r>  0.0000  0.0000  0.0000  0.0000  0.0000  0.0000  0.0000  0.0000  0.0000 </r>
        <r>  0.0000  0.0000  0.0000  0.0000  0.0000  0.0000  0.0000  0.0000  0.0000 </r>
       </set>
       <set comment="band 25">
        <r>  0.0000  0.0000  0.0000  0.0000  0.0000  0.0000  0.0000  0.0000  0.0000 </r>
        <r>  0.0000  0.0000  0.0000  0.0000  0.0000  0.0000  0.0000  0.0000  0.0000 </r>
       </set>
       <set comment="band 26">
        <r>  0.0000  0.0000  0.0000  0.0001  0.0000  0.0000  0.0000  0.0000  0.0000 </r>
        <r>  0.0000  0.0000  0.0000  0.0001  0.0000  0.0000  0.0000  0.0000  0.0000 </r>
       </set>
       <set comment="band 27">
        <r>  0.0000  0.0001  0.0000  0.0000  0.0000  0.0000  0.0000  0.0000  0.0000 </r>
        <r>  0.0000  0.0001  0.0000  0.0000  0.0000  0.0000  0.0000  0.0000  0.0000 </r>
       </set>
       <set comment="band 28">
        <r>  0.0005  0.0000  0.0000  0.0000  0.0000  0.0000  0.0000  0.0000  0.0000 </r>
        <r>  0.0005  0.0000  0.0000  0.0000  0.0000  0.0000  0.0000  0.0000  0.0000 </r>
       </set>
       <set comment="band 29">
        <r>  0.0001  0.0000  0.0017  0.0000  0.0000  0.0000  0.0000  0.0000  0.0000 </r>
        <r>  0.0001  0.0000  0.0017  0.0000  0.0000  0.0000  0.0000  0.0000  0.0000 </r>
       </set>
       <set comment="band 30">
        <r>  0.0000  0.0000  0.0000  0.0007  0.0000  0.0000  0.0000  0.0000  0.0000 </r>
        <r>  0.0000  0.0000  0.0000  0.0007  0.0000  0.0000  0.0000  0.0000  0.0000 </r>
       </set>
       <set comment="band 31">
        <r>  0.0000  0.0007  0.0000  0.0000  0.0000  0.0000  0.0000  0.0000  0.0000 </r>
        <r>  0.0000  0.0007  0.0000  0.0000  0.0000  0.0000  0.0000  0.0000  0.0000 </r>
       </set>
       <set comment="band 32">
        <r>  0.0000  0.0000  0.0000  0.0000  0.0000  0.0000  0.0000  0.0000  0.0000 </r>
        <r>  0.0000  0.0000  0.0000  0.0000  0.0000  0.0000  0.0000  0.0000  0.0000 </r>
       </set>
      </set>
     </set>
    </set>
   </array>
  </projected>
 </calculation>
 <structure name="finalpos" >
  <crystal>
   <varray name="basis" >
    <v>      30.00556404       0.00000000       0.00000000 </v>
    <v>       0.00000000      29.99564304       0.00000000 </v>
    <v>       0.00000000       0.00000000      30.01592523 </v>
   </varray>
   <i name="volume">  27015.41893032 </i>
   <varray name="rec_basis" >
    <v>       0.03332715       0.00000000       0.00000000 </v>
    <v>       0.00000000       0.03333818      -0.00000000 </v>
    <v>      -0.00000000      -0.00000000       0.03331565 </v>
   </varray>
  </crystal>
  <varray name="positions" >
   <v>       0.49983339       0.50000000       0.50013399 </v>
   <v>       0.49983339       0.50000000       0.56655491 </v>
  </varray>
 </structure>
</modeling>
