<?xml version="1.0" encoding="ISO-8859-1"?>
<modeling>
 <generator>
  <i name="program" type="string">vasp </i>
  <i name="version" type="string">6.4.3  </i>
  <i name="subversion" type="string">19Mar24 (build Oct 16 2024 18:29:25) complex                          parallel </i>
  <i name="platform" type="string">LinuxIFC </i>
  <i name="date" type="string">2025 08 12 </i>
  <i name="time" type="string">17:34:17 </i>
 </generator>
 <incar>
  <i type="string" name="PREC">Accurate</i>
  <i type="string" name="ALGO">Fast</i>
  <i type="int" name="ISPIN">     2</i>
  <i type="int" name="NELM">   100</i>
  <i type="int" name="IBRION">     2</i>
  <i name="EDIFF">      0.00040000</i>
  <i type="int" name="NSW">    99</i>
  <i type="int" name="ISIF">     3</i>
  <i name="ENCUT">    520.00000000</i>
  <v name="MAGMOM">      0.60000000      0.60000000      0.60000000      0.60000000      0.60000000      0.60000000      0.60000000      0.60000000</v>
  <i type="string" name="LREAL">Auto</i>
  <i type="int" name="ISMEAR">    -5</i>
  <i name="SIGMA">      0.05000000</i>
  <i type="logical" name="LWAVE"> F  </i>
  <i type="int" name="LORBIT">    11</i>
  <i type="logical" name="LASPH"> T  </i>
 </incar>
 <primitive_cell>
  <structure name="primitive_cell" >
   <crystal>
    <varray name="basis" >
     <v>      -5.21630200      -3.01344000       0.00000000 </v>
     <v>       5.21630200      -3.01344000       0.00000000 </v>
     <v>       0.00000000       1.95790400       6.35862900 </v>
    </varray>
    <i name="volume">    199.90274508 </i>
    <varray name="rec_basis" >
     <v>      -0.09585335      -0.16592333       0.05108994 </v>
     <v>       0.09585335      -0.16592333       0.05108994 </v>
     <v>       0.00000000       0.00000000       0.15726661 </v>
    </varray>
   </crystal>
   <varray name="positions" >
    <v>       0.16661700       0.83338300       0.00000000 </v>
    <v>       0.83338300       0.16661700       0.00000000 </v>
    <v>       0.79547300       0.79547300       0.78873300 </v>
    <v>       0.20452700       0.20452700       0.21126700 </v>
    <v>       0.93150300       0.56832000       0.21036800 </v>
    <v>       0.43168000       0.06849700       0.78963200 </v>
    <v>       0.06849700       0.43168000       0.78963200 </v>
    <v>       0.56832000       0.93150300       0.21036800 </v>
   </varray>
  </structure>
  <varray name="primitive_index" >
   <v type="int" >        1 </v>
   <v type="int" >        2 </v>
   <v type="int" >        3 </v>
   <v type="int" >        4 </v>
   <v type="int" >        5 </v>
   <v type="int" >        6 </v>
   <v type="int" >        7 </v>
   <v type="int" >        8 </v>
  </varray>
 </primitive_cell>
 <kpoints>
  <generation param="Monkhorst-Pack">
   <v type="int" name="divisions">       4        4        4 </v>
   <v name="usershift">      0.00000000       0.00000000       0.00000000 </v>
   <v name="genvec1">      0.25000000       0.00000000      -0.00000000 </v>
   <v name="genvec2">      0.00000000       0.25000000      -0.00000000 </v>
   <v name="genvec3">      0.00000000       0.00000000       0.25000000 </v>
   <v name="shift">      0.50000000       0.50000000       0.50000000 </v>
  </generation>
  <varray name="kpointlist" >
   <v>       0.12500000       0.12500000       0.12500000 </v>
   <v>       0.37500000       0.12500000       0.12500000 </v>
   <v>      -0.37500000       0.12500000       0.12500000 </v>
   <v>      -0.12500000       0.12500000       0.12500000 </v>
   <v>       0.37500000       0.37500000       0.12500000 </v>
   <v>      -0.37500000       0.37500000       0.12500000 </v>
   <v>      -0.12500000       0.37500000       0.12500000 </v>
   <v>      -0.37500000      -0.37500000       0.12500000 </v>
   <v>      -0.12500000      -0.37500000       0.12500000 </v>
   <v>      -0.12500000      -0.12500000       0.12500000 </v>
   <v>       0.12500000       0.12500000       0.37500000 </v>
   <v>       0.37500000       0.12500000       0.37500000 </v>
   <v>      -0.37500000       0.12500000       0.37500000 </v>
   <v>      -0.12500000       0.12500000       0.37500000 </v>
   <v>       0.37500000       0.37500000       0.37500000 </v>
   <v>      -0.37500000       0.37500000       0.37500000 </v>
   <v>      -0.12500000       0.37500000       0.37500000 </v>
   <v>      -0.37500000      -0.37500000       0.37500000 </v>
   <v>      -0.12500000      -0.37500000       0.37500000 </v>
   <v>      -0.12500000      -0.12500000       0.37500000 </v>
  </varray>
  <varray name="weights" >
   <v>       0.03125000 </v>
   <v>       0.06250000 </v>
   <v>       0.06250000 </v>
   <v>       0.06250000 </v>
   <v>       0.03125000 </v>
   <v>       0.06250000 </v>
   <v>       0.06250000 </v>
   <v>       0.03125000 </v>
   <v>       0.06250000 </v>
   <v>       0.03125000 </v>
   <v>       0.03125000 </v>
   <v>       0.06250000 </v>
   <v>       0.06250000 </v>
   <v>       0.06250000 </v>
   <v>       0.03125000 </v>
   <v>       0.06250000 </v>
   <v>       0.06250000 </v>
   <v>       0.03125000 </v>
   <v>       0.06250000 </v>
   <v>       0.03125000 </v>
  </varray>
  <varray name="tetrahedronlist"  type="int" >
   <v type="int" >        2       15       16       16       16 </v>
   <v type="int" >        2       16       16       16       18 </v>
   <v type="int" >        2       15       16       16       18 </v>
   <v type="int" >        2       13       16       17       18 </v>
   <v type="int" >        2       13       17       18       19 </v>
   <v type="int" >        2       12       13       18       19 </v>
   <v type="int" >        2       13       16       16       18 </v>
   <v type="int" >        2       13       15       16       18 </v>
   <v type="int" >        2       12       13       15       18 </v>
   <v type="int" >        2       12       17       19       19 </v>
   <v type="int" >        2       12       13       19       19 </v>
   <v type="int" >        2       13       17       19       19 </v>
   <v type="int" >        2       15       16       17       18 </v>
   <v type="int" >        2       15       17       18       19 </v>
   <v type="int" >        2       12       15       17       19 </v>
   <v type="int" >        2       15       16       16       17 </v>
   <v type="int" >        2       13       15       16       17 </v>
   <v type="int" >        2       12       13       15       17 </v>
   <v type="int" >        2       12       18       19       19 </v>
   <v type="int" >        2       12       19       19       20 </v>
   <v type="int" >        2       11       12       19       20 </v>
   <v type="int" >        2       12       15       18       19 </v>
   <v type="int" >        2       12       12       15       19 </v>
   <v type="int" >        2       11       12       12       19 </v>
   <v type="int" >        2       13       17       19       20 </v>
   <v type="int" >        2       13       14       17       20 </v>
   <v type="int" >        2       14       14       17       20 </v>
   <v type="int" >        2       12       17       19       20 </v>
   <v type="int" >        2       11       12       17       20 </v>
   <v type="int" >        2       11       14       17       20 </v>
   <v type="int" >        2       13       14       16       16 </v>
   <v type="int" >        2       14       16       16       17 </v>
   <v type="int" >        4       13       14       16       17 </v>
   <v type="int" >        2       14       14       16       17 </v>
   <v type="int" >        2       13       14       14       16 </v>
   <v type="int" >        2       12       12       17       19 </v>
   <v type="int" >        2       12       12       13       19 </v>
   <v type="int" >        2       12       12       13       17 </v>
   <v type="int" >        2       11       13       19       20 </v>
   <v type="int" >        2       11       13       14       20 </v>
   <v type="int" >        2       11       13       14       14 </v>
   <v type="int" >        2       11       12       13       19 </v>
   <v type="int" >        2       11       12       13       17 </v>
   <v type="int" >        2       11       13       14       17 </v>
   <v type="int" >        2       14       14       14       20 </v>
   <v type="int" >        2       11       14       14       14 </v>
   <v type="int" >        2       11       14       14       20 </v>
   <v type="int" >        2        6       16       16       18 </v>
   <v type="int" >        2        6       15       16       16 </v>
   <v type="int" >        2        5        6       15       16 </v>
   <v type="int" >        2        6        8       16       18 </v>
   <v type="int" >        2        6        6        8       16 </v>
   <v type="int" >        2        5        6        6       16 </v>
   <v type="int" >        2        3       13       15       16 </v>
   <v type="int" >        2        3       12       13       15 </v>
   <v type="int" >        2        2        3       12       15 </v>
   <v type="int" >        2        3        6       15       16 </v>
   <v type="int" >        2        3        5        6       15 </v>
   <v type="int" >        2        2        3        5       15 </v>
   <v type="int" >        2        9       12       13       19 </v>
   <v type="int" >        2        9       12       17       19 </v>
   <v type="int" >        2        7        9       12       17 </v>
   <v type="int" >        2        3        9       12       13 </v>
   <v type="int" >        2        2        3        9       12 </v>
   <v type="int" >        2        2        7        9       12 </v>
   <v type="int" >        2        8       17       18       19 </v>
   <v type="int" >        2        8       16       17       18 </v>
   <v type="int" >        2        6        8       16       17 </v>
   <v type="int" >        2        8        9       17       19 </v>
   <v type="int" >        2        7        8        9       17 </v>
   <v type="int" >        2        6        7        8       17 </v>
   <v type="int" >        2        5       13       15       16 </v>
   <v type="int" >        2        5       12       13       15 </v>
   <v type="int" >        2        2        5       12       13 </v>
   <v type="int" >        2        5        6       13       16 </v>
   <v type="int" >        2        3        5        6       13 </v>
   <v type="int" >        2        2        3        5       13 </v>
   <v type="int" >        2        2       12       12       15 </v>
   <v type="int" >        2        2       11       12       12 </v>
   <v type="int" >        2        1        2       11       12 </v>
   <v type="int" >        2        2        5       12       15 </v>
   <v type="int" >        2        2        2        5       12 </v>
   <v type="int" >        2        1        2        2       12 </v>
   <v type="int" >        2        7       11       12       17 </v>
   <v type="int" >        2        7       11       14       17 </v>
   <v type="int" >        2        4        7       11       14 </v>
   <v type="int" >        2        2        7       11       12 </v>
   <v type="int" >        2        1        2        7       11 </v>
   <v type="int" >        2        1        4        7       11 </v>
   <v type="int" >        2        6       14       16       17 </v>
   <v type="int" >        2        6       13       14       16 </v>
   <v type="int" >        2        3        6       13       14 </v>
   <v type="int" >        2        6        7       14       17 </v>
   <v type="int" >        2        4        6        7       14 </v>
   <v type="int" >        2        3        4        6       14 </v>
   <v type="int" >        2        2       12       13       19 </v>
   <v type="int" >        2        2       12       17       19 </v>
   <v type="int" >        2        2        7       17       19 </v>
   <v type="int" >        2        2        3       13       19 </v>
   <v type="int" >        2        2        3        9       19 </v>
   <v type="int" >        2        2        7        9       19 </v>
   <v type="int" >        2        1       11       12       17 </v>
   <v type="int" >        2        1       11       14       17 </v>
   <v type="int" >        2        1        4       14       17 </v>
   <v type="int" >        2        1        2       12       17 </v>
   <v type="int" >        2        1        2        7       17 </v>
   <v type="int" >        2        1        4        7       17 </v>
   <v type="int" >        2        4       11       14       14 </v>
   <v type="int" >        2        4       14       14       20 </v>
   <v type="int" >        2        4       10       14       20 </v>
   <v type="int" >        2        1        4       11       14 </v>
   <v type="int" >        2        1        4        4       14 </v>
   <v type="int" >        2        4        4       10       14 </v>
   <v type="int" >        2        3       13       14       20 </v>
   <v type="int" >        2        3       13       19       20 </v>
   <v type="int" >        2        3        9       19       20 </v>
   <v type="int" >        2        3        4       14       20 </v>
   <v type="int" >        2        3        4       10       20 </v>
   <v type="int" >        2        3        9       10       20 </v>
   <v type="int" >        2        7       17       18       19 </v>
   <v type="int" >        2        7       16       17       18 </v>
   <v type="int" >        2        6        7       16       18 </v>
   <v type="int" >        2        7        9       18       19 </v>
   <v type="int" >        2        7        8        9       18 </v>
   <v type="int" >        2        6        7        8       18 </v>
   <v type="int" >        2        4       14       16       17 </v>
   <v type="int" >        2        4       13       14       16 </v>
   <v type="int" >        2        3        4       13       16 </v>
   <v type="int" >        2        4        7       16       17 </v>
   <v type="int" >        2        4        6        7       16 </v>
   <v type="int" >        2        3        4        6       16 </v>
   <v type="int" >        2       10       13       14       20 </v>
   <v type="int" >        2       10       13       19       20 </v>
   <v type="int" >        2        9       10       13       19 </v>
   <v type="int" >        2        4       10       13       14 </v>
   <v type="int" >        2        3        4       10       13 </v>
   <v type="int" >        2        3        9       10       13 </v>
   <v type="int" >        2        9       19       19       20 </v>
   <v type="int" >        2        9       18       19       19 </v>
   <v type="int" >        2        8        9       18       19 </v>
   <v type="int" >        2        9       10       19       20 </v>
   <v type="int" >        2        9        9       10       19 </v>
   <v type="int" >        2        8        9        9       19 </v>
   <v type="int" >        2        6        6        6        8 </v>
   <v type="int" >        2        5        6        6        6 </v>
   <v type="int" >        2        5        6        6        8 </v>
   <v type="int" >        2        3        5        6        7 </v>
   <v type="int" >        2        2        3        5        7 </v>
   <v type="int" >        2        2        5        7        9 </v>
   <v type="int" >        2        5        6        6        7 </v>
   <v type="int" >        2        5        6        7        8 </v>
   <v type="int" >        2        5        7        8        9 </v>
   <v type="int" >        2        2        2        3        9 </v>
   <v type="int" >        2        2        2        7        9 </v>
   <v type="int" >        2        2        2        3        7 </v>
   <v type="int" >        2        3        5        6        8 </v>
   <v type="int" >        2        2        3        5        8 </v>
   <v type="int" >        2        2        3        8        9 </v>
   <v type="int" >        2        3        6        6        8 </v>
   <v type="int" >        2        3        6        7        8 </v>
   <v type="int" >        2        3        7        8        9 </v>
   <v type="int" >        2        2        2        5        9 </v>
   <v type="int" >        2        1        2        2        9 </v>
   <v type="int" >        2        1        2        9       10 </v>
   <v type="int" >        2        2        5        8        9 </v>
   <v type="int" >        2        2        8        9        9 </v>
   <v type="int" >        2        2        9        9       10 </v>
   <v type="int" >        2        1        2        3        7 </v>
   <v type="int" >        2        1        3        4        7 </v>
   <v type="int" >        2        1        3        4        4 </v>
   <v type="int" >        2        1        2        3        9 </v>
   <v type="int" >        2        1        3        9       10 </v>
   <v type="int" >        2        1        3        4       10 </v>
   <v type="int" >        2        4        6        6        7 </v>
   <v type="int" >        2        3        4        6        6 </v>
   <v type="int" >        4        3        4        6        7 </v>
   <v type="int" >        2        3        4        4        6 </v>
   <v type="int" >        2        4        4        6        7 </v>
   <v type="int" >        2        2        3        9        9 </v>
   <v type="int" >        2        2        7        9        9 </v>
   <v type="int" >        2        3        7        9        9 </v>
   <v type="int" >        2        1        2        7       10 </v>
   <v type="int" >        2        1        4        7       10 </v>
   <v type="int" >        2        4        4        7       10 </v>
   <v type="int" >        2        2        7        9       10 </v>
   <v type="int" >        2        3        7        9       10 </v>
   <v type="int" >        2        3        4        7       10 </v>
   <v type="int" >        2        1        4        4        4 </v>
   <v type="int" >        2        4        4        4       10 </v>
   <v type="int" >        2        1        4        4       10 </v>
  </varray>
  <i name="volumeweight">      0.00260417 </i>
 </kpoints>
 <parameters>
  <separator name="general" >
   <i type="string" name="SYSTEM">unknown system</i>
   <i type="logical" name="LCOMPAT"> F  </i>
  </separator>
  <separator name="electronic" >
   <i type="string" name="PREC">accura</i>
   <i name="ENMAX">    520.00000000</i>
   <i name="ENAUG">    356.19200000</i>
   <i name="EDIFF">      0.00040000</i>
   <i type="int" name="IALGO">    68</i>
   <i type="int" name="IWAVPR">    11</i>
   <i type="int" name="NBANDS">    32</i>
   <i type="int" name="NBANDSLOW">    -1</i>
   <i type="int" name="NBANDSHIGH">    -1</i>
   <i name="NELECT">     48.00000000</i>
   <i type="int" name="TURBO">     0</i>
   <i type="int" name="IRESTART">     0</i>
   <i type="int" name="NREBOOT">     0</i>
   <i type="int" name="NMIN">     0</i>
   <i name="EREF">      0.00000000</i>
   <separator name="electronic smearing" >
    <i type="int" name="ISMEAR">    -5</i>
    <i name="SIGMA">      0.05000000</i>
    <i name="KSPACING">      0.50000000</i>
    <i type="logical" name="KGAMMA"> T  </i>
    <i type="logical" name="KBLOWUP"> T  </i>
   </separator>
   <separator name="electronic projectors" >
    <i type="logical" name="LREAL"> T  </i>
    <v name="ROPT">     -0.00025000     -0.00025000</v>
    <i type="int" name="LMAXPAW">  -100</i>
    <i type="int" name="LMAXMIX">     2</i>
    <i type="logical" name="NLSPLINE"> F  </i>
   </separator>
   <separator name="electronic startup" >
    <i type="int" name="ISTART">     0</i>
    <i type="int" name="ICHARG">     2</i>
    <i type="int" name="INIWAV">     1</i>
   </separator>
   <separator name="electronic spin" >
    <i type="int" name="ISPIN">     2</i>
    <i type="logical" name="LNONCOLLINEAR"> F  </i>
    <v name="MAGMOM">      0.60000000      0.60000000      0.60000000      0.60000000      0.60000000      0.60000000      0.60000000      0.60000000</v>
    <i name="NUPDOWN">     -1.00000000</i>
    <i type="logical" name="LSORBIT"> F  </i>
    <v name="SAXIS">      0.00000000      0.00000000      1.00000000</v>
    <i type="logical" name="LSPIRAL"> F  </i>
    <v name="QSPIRAL">      0.00000000      0.00000000      0.00000000</v>
    <i type="logical" name="LZEROZ"> F  </i>
   </separator>
   <separator name="electronic exchange-correlation" >
    <i type="logical" name="LASPH"> T  </i>
   </separator>
   <separator name="electronic convergence" >
    <i type="int" name="NELM">   100</i>
    <i type="int" name="NELMDL">    -5</i>
    <i type="int" name="NELMIN">     2</i>
    <i name="ENINI">    520.00000000</i>
    <separator name="electronic convergence detail" >
     <i type="logical" name="LDIAG"> T  </i>
     <i type="logical" name="LSUBROT"> F  </i>
     <i name="WEIMIN">      0.00100000</i>
     <i name="EBREAK">      0.00000313</i>
     <i name="DEPER">      0.30000000</i>
     <i type="int" name="NRMM">     4</i>
     <i name="TIME">      0.40000000</i>
    </separator>
   </separator>
   <separator name="electronic mixer" >
    <i name="AMIX">      0.40000000</i>
    <i name="BMIX">      1.00000000</i>
    <i name="AMIN">      0.10000000</i>
    <i name="AMIX_MAG">      1.60000000</i>
    <i name="BMIX_MAG">      1.00000000</i>
    <separator name="electronic mixer details" >
     <i type="int" name="IMIX">     4</i>
     <i type="logical" name="MIXFIRST"> F  </i>
     <i type="int" name="MAXMIX">   -45</i>
     <i name="WC">    100.00000000</i>
     <i type="int" name="INIMIX">     1</i>
     <i type="int" name="MIXPRE">     1</i>
     <i type="int" name="MREMOVE">     5</i>
    </separator>
   </separator>
   <separator name="electronic dipolcorrection" >
    <i type="logical" name="LDIPOL"> F  </i>
    <i type="logical" name="LMONO"> F  </i>
    <i type="int" name="IDIPOL">     0</i>
    <i name="EPSILON">      1.00000000</i>
    <v name="DIPOL">   -100.00000000   -100.00000000   -100.00000000</v>
    <i name="EFIELD">      0.00000000</i>
    <i type="logical" name="LVACPOTAV"> F  </i>
   </separator>
  </separator>
  <separator name="grids" >
   <i type="int" name="NGX">    48</i>
   <i type="int" name="NGY">    48</i>
   <i type="int" name="NGZ">    50</i>
   <i type="int" name="NGXF">    96</i>
   <i type="int" name="NGYF">    96</i>
   <i type="int" name="NGZF">   100</i>
   <i type="logical" name="ADDGRID"> F  </i>
  </separator>
  <separator name="ionic" >
   <i type="int" name="NSW">    99</i>
   <i type="int" name="IBRION">     2</i>
   <i type="int" name="MDALGO">     0</i>
   <i type="int" name="ISIF">     3</i>
   <i name="PSTRESS">      0.00000000</i>
   <i name="EDIFFG">      0.00400000</i>
   <i type="int" name="NFREE">     1</i>
   <i name="POTIM">      0.50000000</i>
   <i name="SMASS">     -3.00000000</i>
   <i name="SCALEE">      1.00000000</i>
  </separator>
  <separator name="ionic md" >
   <i name="TEBEG">      0.00010000</i>
   <i name="TEEND">      0.00010000</i>
   <i type="int" name="NBLOCK">     1</i>
   <i type="int" name="KBLOCK">    99</i>
   <i type="int" name="NPACO">   256</i>
   <i name="APACO">     10.00000000</i>
  </separator>
  <separator name="symmetry" >
   <i type="int" name="ISYM">     2</i>
   <i name="SYMPREC">      0.00001000</i>
  </separator>
  <separator name="dos" >
   <i type="int" name="LORBIT">    11</i>
   <v name="RWIGS">     -1.00000000     -1.00000000</v>
   <i type="int" name="NEDOS">   301</i>
   <i name="EMIN">     10.00000000</i>
   <i name="EMAX">    -10.00000000</i>
   <i name="EFERMI">      0.00000000</i>
  </separator>
  <separator name="writing" >
   <i type="int" name="NWRITE">     2</i>
   <i type="logical" name="LWAVE"> F  </i>
   <i type="logical" name="LDOWNSAMPLE"> F  </i>
   <i type="logical" name="LCHARG"> T  </i>
   <i type="logical" name="LPARD"> F  </i>
   <i type="logical" name="LVTOT"> F  </i>
   <i type="logical" name="LVHAR"> F  </i>
   <i type="logical" name="LELF"> F  </i>
   <i type="logical" name="LOPTICS"> F  </i>
   <v name="STM">      0.00000000      0.00000000      0.00000000      0.00000000      0.00000000      0.00000000      0.00000000</v>
  </separator>
  <separator name="performance" >
   <i type="int" name="NPAR">    32</i>
   <i type="int" name="NSIM">     4</i>
   <i type="int" name="NBLK">    -1</i>
   <i type="logical" name="LPLANE"> T  </i>
   <i type="logical" name="LSCALAPACK"> T  </i>
   <i type="logical" name="LSCAAWARE"> F  </i>
   <i type="logical" name="LSCALU"> F  </i>
   <i type="logical" name="LASYNC"> F  </i>
   <i type="logical" name="LORBITALREAL"> F  </i>
  </separator>
  <separator name="miscellaneous" >
   <i type="int" name="IDIOT">     3</i>
   <i type="int" name="PHON_NSTRUCT">    -1</i>
   <i type="logical" name="LMUSIC"> F  </i>
   <v name="POMASS">     26.98200000     35.45300000</v>
   <v name="DARWINR">      0.00000000      0.00000000</v>
   <v name="DARWINV">      1.00000000      1.00000000</v>
   <i type="logical" name="LCORR"> T  </i>
  </separator>
  <i type="logical" name="GGA_COMPAT"> T  </i>
  <i type="logical" name="LBERRY"> F  </i>
  <i type="int" name="ICORELEVEL">     0</i>
  <i type="logical" name="LDAU"> F  </i>
  <i type="int" name="I_CONSTRAINED_M">     0</i>
  <separator name="electronic exchange-correlation" >
   <i type="string" name="GGA    ">PE</i>
   <i type="string" name="XC_C">1</i>
   <i type="int" name="VOSKOWN">     0</i>
   <i type="logical" name="LHFCALC"> F  </i>
   <i type="string" name="PRECFOCK"></i>
   <i type="logical" name="LSYMGRAD"> F  </i>
   <i type="logical" name="LHFONE"> F  </i>
   <i type="logical" name="LRHFCALC"> F  </i>
   <i type="logical" name="LTHOMAS"> F  </i>
   <i type="logical" name="LMODELHF"> F  </i>
   <i type="logical" name="LFOCKACE"> F  </i>
   <i name="ENCUT4O">     -1.00000000</i>
   <i type="int" name="EXXOEP">     0</i>
   <i type="int" name="FOURORBIT">     0</i>
   <i name="AEXX">      0.00000000</i>
   <i name="HFALPHA">      0.00000000</i>
   <i name="MCALPHA">      0.00000000</i>
   <i name="ALDAX">      1.00000000</i>
   <i name="AGGAX">      1.00000000</i>
   <i name="AMGGAX">      1.00000000</i>
   <i name="ALDAC">      1.00000000</i>
   <i name="AGGAC">      1.00000000</i>
   <i name="AMGGAC">      1.00000000</i>
   <i type="int" name="NKREDX">     1</i>
   <i type="int" name="NKREDY">     1</i>
   <i type="int" name="NKREDZ">     1</i>
   <i type="logical" name="SHIFTRED"> F  </i>
   <i type="logical" name="ODDONLY"> F  </i>
   <i type="logical" name="EVENONLY"> F  </i>
   <i type="int" name="LMAXFOCK">     0</i>
   <i type="int" name="NMAXFOCKAE">     0</i>
   <i type="logical" name="LFOCKAEDFT"> F  </i>
   <i name="HFSCREEN">      0.00000000</i>
   <i name="HFSCREENC">      0.00000000</i>
   <i type="int" name="NBANDSGWLOW">     0</i>
  </separator>
  <separator name="vdW DFT" >
   <i type="logical" name="LUSE_VDW"> F  </i>
   <i type="int" name="IVDW_NL">    -1</i>
   <i type="logical" name="LSPIN_VDW"> F  </i>
   <i name="ZAB_VDW">     -0.84910000</i>
   <i name="GAMMA_VDW">      1.39626340</i>
   <i name="ALPHA_VDW">      0.00000000</i>
   <i name="PARAM1">      0.12340000</i>
   <i name="PARAM2">      1.00000000</i>
   <i name="BPARAM">      6.30000000</i>
   <i name="CPARAM">      0.00930000</i>
  </separator>
  <separator name="model GW" >
   <i type="int" name="MODEL_GW">     0</i>
   <i name="MODEL_EPS0">     14.99270588</i>
   <i name="MODEL_ALPHA">      1.00000000</i>
  </separator>
  <separator name="linear response parameters" >
   <i type="logical" name="LEPSILON"> F  </i>
   <i type="logical" name="LRPA"> F  </i>
   <i type="logical" name="LNABLA"> F  </i>
   <i type="logical" name="LVEL"> F  </i>
   <i name="CSHIFT">      0.10000000</i>
   <i name="OMEGAMAX">     -1.00000000</i>
   <i name="DEG_THRESHOLD">      0.00200000</i>
   <i name="RTIME">     -0.10000000</i>
   <i name="WPLASMAI">      0.00000000</i>
   <v name="DFIELD">      0.00000000      0.00000000      0.00000000</v>
   <v name="WPLASMA">      0.00000000      0.00000000      0.00000000      0.00000000      0.00000000      0.00000000      0.00000000      0.00000000      0.00000000</v>
  </separator>
  <separator name="orbital magnetization" >
   <i type="logical" name="NUCIND"> F  </i>
   <v name="MAGPOS">      0.00000000      0.00000000      0.00000000</v>
   <i type="logical" name="LNICSALL"> T  </i>
   <i type="logical" name="ORBITALMAG"> F  </i>
   <i type="logical" name="LMAGBLOCH"> F  </i>
   <i type="logical" name="LCHIMAG"> F  </i>
   <i type="logical" name="LGAUGE"> T  </i>
   <i type="int" name="MAGATOM">     0</i>
   <v name="MAGDIPOL">      0.00000000      0.00000000      0.00000000</v>
   <v name="AVECCONST">      0.00000000      0.00000000      0.00000000</v>
  </separator>
  <separator name="response functions" >
   <i type="logical" name="LALL_IN_ONE"> F  </i>
   <i type="int" name="IALL_IN_ONE">    -1</i>
   <i type="int" name="NBANDS_WAVE">    -1</i>
   <i type="logical" name="LFINITE_TEMPERATURE"> F  </i>
   <i type="logical" name="LADDER"> F  </i>
   <i type="logical" name="LRPAFORCE"> F  </i>
   <i type="logical" name="LFXC"> F  </i>
   <i type="logical" name="LHARTREE"> T  </i>
   <i type="int" name="IBSE">     0</i>
   <v type="int" name="KPOINT">    -1     0     0     0</v>
   <i type="logical" name="LTCTC"> F  </i>
   <i type="logical" name="LTCTE"> F  </i>
   <i type="logical" name="LTETE"> F  </i>
   <i type="logical" name="LTRIPLET"> F  </i>
   <i type="logical" name="LFXCEPS"> F  </i>
   <i type="logical" name="LFXHEG"> F  </i>
   <i type="int" name="NATURALO">     2</i>
   <i type="logical" name="LHOLEGF"> F  </i>
   <i type="logical" name="L2ORDER"> F  </i>
   <i type="logical" name="LDMP1"> F  </i>
   <i type="logical" name="LMP2LT"> F  </i>
   <i type="logical" name="LSMP2LT"> F  </i>
   <i type="logical" name="LGWLF"> F  </i>
   <i name="ENCUTGW">     -1.60000002</i>
   <i name="ENCUTGWSOFT">     -1.60000002</i>
   <i name="ENCUTLF">     -1.00000000</i>
   <i type="logical" name="ESF_SPLINES"> F  </i>
   <i name="ESF_CONV">      0.01000000</i>
   <i type="int" name="ESF_NINTER">    15</i>
   <i type="int" name="LMAXMP2">    -1</i>
   <i name="SCISSOR">      0.00000000</i>
   <i type="int" name="NOMEGA">     0</i>
   <i type="int" name="NOMEGAR">     0</i>
   <i type="int" name="NBANDSGW">    -1</i>
   <i type="int" name="NBANDSO">    -1</i>
   <i type="int" name="NBANDSV">    -1</i>
   <i type="int" name="NELMGW">     1</i>
   <i type="int" name="NELMHF">     1</i>
   <i type="int" name="DIM">     3</i>
   <i type="int" name="IESPILON">     4</i>
   <i type="int" name="ANTIRES">     0</i>
   <i name="OMEGAMAX">    -30.00000000</i>
   <i name="OMEGAMIN">    -30.00000000</i>
   <i name="OMEGATL">   -200.00000000</i>
   <i type="int" name="OMEGAGRID">     0</i>
   <i name="CSHIFT">     -0.10000000</i>
   <i type="logical" name="LSELFENERGY"> F  </i>
   <i type="logical" name="LSPECTRAL"> F  </i>
   <i type="logical" name="LSPECTRALGW"> F  </i>
   <i type="logical" name="LSINGLES"> F  </i>
   <i type="logical" name="LFERMIGW"> F  </i>
   <i type="logical" name="ODDONLYGW"> F  </i>
   <i type="logical" name="EVENONLYGW"> F  </i>
   <i type="int" name="NKREDLFX">     1</i>
   <i type="int" name="NKREDLFY">     1</i>
   <i type="int" name="NKREDLFZ">     1</i>
   <i type="int" name="MAXMEM">  2800</i>
   <i type="int" name="TELESCOPE">     0</i>
   <i type="int" name="NTAUPAR">    -1</i>
   <i type="int" name="NOMEGAPAR">    -1</i>
   <i name="DAMP_NEWTON">      0.80000001</i>
   <i name="LAMBDA">      1.00000000</i>
  </separator>
  <separator name="External order field" >
   <i name="OFIELD_KAPPA">      0.00000000</i>
   <v name="OFIELD_K">      0.00000000      0.00000000      0.00000000</v>
   <i name="OFIELD_Q6_NEAR">      0.00000000</i>
   <i name="OFIELD_Q6_FAR">      0.00000000</i>
   <i name="OFIELD_A">      0.00000000</i>
  </separator>
  <separator name="optional k-points parameters" >
   <i type="int" name="KPOINTS_OPT_MODE">     1</i>
   <i type="logical" name="LKPOINTS_OPT"> F  </i>
  </separator>
 </parameters>
 <atominfo>
  <atoms>       8 </atoms>
  <types>       2 </types>
  <array name="atoms" >
   <dimension dim="1">ion</dimension>
   <field type="string">element</field>
   <field type="int">atomtype</field>
   <set>
    <rc><c>Al</c><c>   1</c></rc>
    <rc><c>Al</c><c>   1</c></rc>
    <rc><c>Cl</c><c>   2</c></rc>
    <rc><c>Cl</c><c>   2</c></rc>
    <rc><c>Cl</c><c>   2</c></rc>
    <rc><c>Cl</c><c>   2</c></rc>
    <rc><c>Cl</c><c>   2</c></rc>
    <rc><c>Cl</c><c>   2</c></rc>
   </set>
  </array>
  <array name="atomtypes" >
   <dimension dim="1">type</dimension>
   <field type="int">atomspertype</field>
   <field type="string">element</field>
   <field>mass</field>
   <field>valence</field>
   <field type="string">pseudopotential</field>
   <set>
    <rc><c>   2</c><c>Al</c><c>     26.98200000</c><c>      3.00000000</c><c> PAW_PBE Al 04Jan2001                   </c></rc>
    <rc><c>   6</c><c>Cl</c><c>     35.45300000</c><c>      7.00000000</c><c>  PAW_PBE Cl 17Jan2003                  </c></rc>
   </set>
  </array>
 </atominfo>
 <structure name="initialpos" >
  <crystal>
   <varray name="basis" >
    <v>      -5.21630200      -3.01344000       0.00000000 </v>
    <v>       5.21630200      -3.01344000       0.00000000 </v>
    <v>       0.00000000       1.95790400       6.35862900 </v>
   </varray>
   <i name="volume">    199.90274508 </i>
   <varray name="rec_basis" >
    <v>      -0.09585335      -0.16592333       0.05108994 </v>
    <v>       0.09585335      -0.16592333       0.05108994 </v>
    <v>       0.00000000       0.00000000       0.15726661 </v>
   </varray>
  </crystal>
  <varray name="positions" >
   <v>       0.16661700       0.83338300       0.00000000 </v>
   <v>       0.83338300       0.16661700       0.00000000 </v>
   <v>       0.79547300       0.79547300       0.78873300 </v>
   <v>       0.20452700       0.20452700       0.21126700 </v>
   <v>       0.93150300       0.56832000       0.21036800 </v>
   <v>       0.43168000       0.06849700       0.78963200 </v>
   <v>       0.06849700       0.43168000       0.78963200 </v>
   <v>       0.56832000       0.93150300       0.21036800 </v>
  </varray>
 </structure>
 <calculation>
  <scstep>
   <time name="dav">    1.45    1.46</time>
   <time name="total">    1.64    1.66</time>
   <energy>
    <i name="alphaZ">     42.93029783 </i>
    <i name="ewald">  -1929.47573802 </i>
    <i name="hartreedc">   -589.12999722 </i>
    <i name="XCdc">     68.82066526 </i>
    <i name="pawpsdc">   1261.91555046 </i>
    <i name="pawaedc">  -1198.68272143 </i>
    <i name="eentropy">      0.00000000 </i>
    <i name="bandstr">     55.40098183 </i>
    <i name="atom">   2565.41823506 </i>
    <i name="e_fr_energy">    277.19727378 </i>
    <i name="e_wo_entrp">    277.19727378 </i>
    <i name="e_0_energy">    277.19727378 </i>
   </energy>
  </scstep>
  <scstep>
   <time name="dav">    1.49    1.50</time>
   <time name="total">    1.49    1.51</time>
   <energy>
    <i name="e_fr_energy">    -19.03989249 </i>
    <i name="e_wo_entrp">    -19.03989249 </i>
    <i name="e_0_energy">    -19.03989249 </i>
   </energy>
  </scstep>
  <scstep>
   <time name="dav">    1.25    1.26</time>
   <time name="total">    1.25    1.26</time>
   <energy>
    <i name="e_fr_energy">    -30.58534324 </i>
    <i name="e_wo_entrp">    -30.58534324 </i>
    <i name="e_0_energy">    -30.58534324 </i>
   </energy>
  </scstep>
  <scstep>
   <time name="dav">    2.02    2.03</time>
   <time name="total">    2.02    2.03</time>
   <energy>
    <i name="e_fr_energy">    -30.65150874 </i>
    <i name="e_wo_entrp">    -30.65150874 </i>
    <i name="e_0_energy">    -30.65150874 </i>
   </energy>
  </scstep>
  <scstep>
   <time name="dav">    1.51    1.52</time>
   <time name="total">    1.61    1.62</time>
   <energy>
    <i name="e_fr_energy">    -30.65152249 </i>
    <i name="e_wo_entrp">    -30.65152249 </i>
    <i name="e_0_energy">    -30.65152249 </i>
   </energy>
  </scstep>
  <scstep>
   <time name="diag">    0.21    0.21</time>
   <time name="diis">    0.75    0.76</time>
   <time name="orth">    0.01    0.01</time>
   <time name="total">    1.22    1.23</time>
   <energy>
    <i name="e_fr_energy">    -30.54992780 </i>
    <i name="e_wo_entrp">    -30.54992780 </i>
    <i name="e_0_energy">    -30.54992780 </i>
   </energy>
  </scstep>
  <scstep>
   <time name="diag">    0.20    0.21</time>
   <time name="diis">    0.75    0.75</time>
   <time name="orth">    0.01    0.01</time>
   <time name="total">    1.20    1.21</time>
   <energy>
    <i name="e_fr_energy">    -30.60096736 </i>
    <i name="e_wo_entrp">    -30.60096736 </i>
    <i name="e_0_energy">    -30.60096736 </i>
   </energy>
  </scstep>
  <scstep>
   <time name="diag">    0.20    0.20</time>
   <time name="diis">    0.75    0.76</time>
   <time name="orth">    0.01    0.01</time>
   <time name="total">    1.20    1.21</time>
   <energy>
    <i name="e_fr_energy">    -30.62153433 </i>
    <i name="e_wo_entrp">    -30.62153433 </i>
    <i name="e_0_energy">    -30.62153433 </i>
   </energy>
  </scstep>
  <scstep>
   <time name="diag">    0.20    0.20</time>
   <time name="diis">    0.76    0.76</time>
   <time name="orth">    0.01    0.01</time>
   <time name="total">    1.21    1.22</time>
   <energy>
    <i name="e_fr_energy">    -30.62558630 </i>
    <i name="e_wo_entrp">    -30.62558630 </i>
    <i name="e_0_energy">    -30.62558630 </i>
   </energy>
  </scstep>
  <scstep>
   <time name="diag">    0.20    0.20</time>
   <time name="diis">    0.75    0.76</time>
   <time name="orth">    0.01    0.01</time>
   <time name="total">    1.21    1.22</time>
   <energy>
    <i name="e_fr_energy">    -30.62505210 </i>
    <i name="e_wo_entrp">    -30.62505210 </i>
    <i name="e_0_energy">    -30.62505210 </i>
   </energy>
  </scstep>
  <scstep>
   <time name="diag">    0.20    0.20</time>
   <time name="diis">    0.69    0.69</time>
   <time name="orth">    0.01    0.01</time>
   <time name="total">    1.05    1.06</time>
   <energy>
    <i name="alphaZ">     42.93029783 </i>
    <i name="ewald">  -1929.47573802 </i>
    <i name="hartreedc">   -615.90894183 </i>
    <i name="XCdc">     71.20787735 </i>
    <i name="pawpsdc">   1376.37580264 </i>
    <i name="pawaedc">  -1314.21056699 </i>
    <i name="eentropy">      0.00000000 </i>
    <i name="bandstr">   -226.96184426 </i>
    <i name="atom">   2565.41823506 </i>
    <i name="e_fr_energy">    -30.62487821 </i>
    <i name="e_wo_entrp">    -30.62487821 </i>
    <i name="e_0_energy">    -30.62487821 </i>
   </energy>
  </scstep>
  <structure>
   <crystal>
    <varray name="basis" >
     <v>      -5.21630200      -3.01344000       0.00000000 </v>
     <v>       5.21630200      -3.01344000       0.00000000 </v>
     <v>       0.00000000       1.95790400       6.35862900 </v>
    </varray>
    <i name="volume">    199.90274508 </i>
    <varray name="rec_basis" >
     <v>      -0.09585335      -0.16592333       0.05108994 </v>
     <v>       0.09585335      -0.16592333       0.05108994 </v>
     <v>       0.00000000       0.00000000       0.15726661 </v>
    </varray>
   </crystal>
   <varray name="positions" >
    <v>       0.16661700       0.83338300       0.00000000 </v>
    <v>       0.83338300       0.16661700       0.00000000 </v>
    <v>       0.79547300       0.79547300       0.78873300 </v>
    <v>       0.20452700       0.20452700       0.21126700 </v>
    <v>       0.93150300       0.56832000       0.21036800 </v>
    <v>       0.43168000       0.06849700       0.78963200 </v>
    <v>       0.06849700       0.43168000       0.78963200 </v>
    <v>       0.56832000       0.93150300       0.21036800 </v>
   </varray>
  </structure>
  <varray name="forces" >
   <v>      -0.00023641       0.00000000       0.00000000 </v>
   <v>       0.00023641       0.00000000       0.00000000 </v>
   <v>      -0.00000000       0.00282803       0.04555770 </v>
   <v>       0.00000000      -0.00282803      -0.04555770 </v>
   <v>       0.00327368       0.00223065      -0.03946764 </v>
   <v>       0.00327368      -0.00223065       0.03946764 </v>
   <v>      -0.00327368      -0.00223065       0.03946764 </v>
   <v>      -0.00327368       0.00223065      -0.03946764 </v>
  </varray>
  <varray name="stress" >
   <v>       0.07074182       0.00000000       0.00000000 </v>
   <v>       0.00000000       0.08079159      -0.06148241 </v>
   <v>       0.00000000      -0.06148248       0.51252281 </v>
  </varray>
  <energy>
   <i name="e_fr_energy">    -30.62487821 </i>
   <i name="e_wo_entrp">    -30.62487821 </i>
   <i name="e_0_energy">    -30.62487821 </i>
  </energy>
  <time name="totalsc">   18.18   18.33</time>
 </calculation>
 <calculation>
  <scstep>
   <time name="dav">    1.80    1.82</time>
   <time name="total">    2.05    2.07</time>
   <energy>
    <i name="alphaZ">     42.90885706 </i>
    <i name="ewald">  -1927.65988361 </i>
    <i name="hartreedc">   -617.14813252 </i>
    <i name="XCdc">     71.20724111 </i>
    <i name="pawpsdc">   1376.30896303 </i>
    <i name="pawaedc">  -1314.14301154 </i>
    <i name="eentropy">      0.00000000 </i>
    <i name="bandstr">   -227.51751457 </i>
    <i name="atom">   2565.41823506 </i>
    <i name="e_fr_energy">    -30.62524598 </i>
    <i name="e_wo_entrp">    -30.62524598 </i>
    <i name="e_0_energy">    -30.62524598 </i>
   </energy>
  </scstep>
  <scstep>
   <time name="diag">    0.20    0.20</time>
   <time name="diis">    0.75    0.75</time>
   <time name="orth">    0.01    0.01</time>
   <time name="total">    1.11    1.12</time>
   <energy>
    <i name="alphaZ">     42.90885706 </i>
    <i name="ewald">  -1927.65988361 </i>
    <i name="hartreedc">   -617.29241488 </i>
    <i name="XCdc">     71.21411522 </i>
    <i name="pawpsdc">   1376.36265976 </i>
    <i name="pawaedc">  -1314.19727320 </i>
    <i name="eentropy">      0.00000000 </i>
    <i name="bandstr">   -227.37956560 </i>
    <i name="atom">   2565.41823506 </i>
    <i name="e_fr_energy">    -30.62527019 </i>
    <i name="e_wo_entrp">    -30.62527019 </i>
    <i name="e_0_energy">    -30.62527019 </i>
   </energy>
  </scstep>
  <structure>
   <crystal>
    <varray name="basis" >
     <v>      -5.21657964      -3.01362318       0.00013940 </v>
     <v>       5.21657964      -3.01362318       0.00013940 </v>
     <v>       0.00000000       1.95772887       6.36099046 </v>
    </varray>
    <i name="volume">    200.00263282 </i>
    <varray name="rec_basis" >
     <v>      -0.09584824      -0.16591088       0.05106257 </v>
     <v>       0.09584824      -0.16591088       0.05106257 </v>
     <v>      -0.00000000       0.00000727       0.15720598 </v>
    </varray>
   </crystal>
   <varray name="positions" >
    <v>       0.16661809       0.83338191       0.00000000 </v>
    <v>       0.83338191       0.16661809       0.00000000 </v>
    <v>       0.79556265       0.79556265       0.78907864 </v>
    <v>       0.20443735       0.20443735       0.21092136 </v>
    <v>       0.93137273       0.56822001       0.21006856 </v>
    <v>       0.43177999       0.06862727       0.78993144 </v>
    <v>       0.06862727       0.43177999       0.78993144 </v>
    <v>       0.56822001       0.93137273       0.21006856 </v>
   </varray>
  </structure>
  <varray name="forces" >
   <v>      -0.00072705       0.00000000      -0.00000000 </v>
   <v>       0.00072705       0.00000000      -0.00000000 </v>
   <v>       0.00000000       0.00801634       0.01419471 </v>
   <v>      -0.00000000      -0.00801634      -0.01419471 </v>
   <v>       0.00610660       0.00347017      -0.01045804 </v>
   <v>       0.00610660      -0.00347017       0.01045804 </v>
   <v>      -0.00610660      -0.00347017       0.01045804 </v>
   <v>      -0.00610660       0.00347017      -0.01045804 </v>
  </varray>
  <varray name="stress" >
   <v>       0.74429532       0.00000000       0.00000000 </v>
   <v>       0.00000000       0.74873665      -0.13701672 </v>
   <v>       0.00000000      -0.13701688       2.61879580 </v>
  </varray>
  <energy>
   <i name="e_fr_energy">    -30.62527019 </i>
   <i name="e_wo_entrp">    -30.62527019 </i>
   <i name="e_0_energy">    -30.62527019 </i>
  </energy>
  <time name="totalsc">    4.95    4.98</time>
 </calculation>
 <calculation>
  <scstep>
   <time name="dav">    1.71    1.73</time>
   <time name="total">    1.95    1.98</time>
   <energy>
    <i name="alphaZ">     42.88350364 </i>
    <i name="ewald">  -1925.50218115 </i>
    <i name="hartreedc">   -618.87737106 </i>
    <i name="XCdc">     71.21423527 </i>
    <i name="pawpsdc">   1376.32275657 </i>
    <i name="pawaedc">  -1314.15711786 </i>
    <i name="eentropy">      0.00000000 </i>
    <i name="bandstr">   -227.92755091 </i>
    <i name="atom">   2565.41823506 </i>
    <i name="e_fr_energy">    -30.62549043 </i>
    <i name="e_wo_entrp">    -30.62549043 </i>
    <i name="e_0_energy">    -30.62549043 </i>
   </energy>
  </scstep>
  <scstep>
   <time name="diag">    0.20    0.20</time>
   <time name="diis">    0.65    0.66</time>
   <time name="orth">    0.01    0.01</time>
   <time name="total">    1.01    1.02</time>
   <energy>
    <i name="alphaZ">     42.88350364 </i>
    <i name="ewald">  -1925.50218115 </i>
    <i name="hartreedc">   -619.07948242 </i>
    <i name="XCdc">     71.22446981 </i>
    <i name="pawpsdc">   1376.51326101 </i>
    <i name="pawaedc">  -1314.34977345 </i>
    <i name="eentropy">      0.00000000 </i>
    <i name="bandstr">   -227.73354449 </i>
    <i name="atom">   2565.41823506 </i>
    <i name="e_fr_energy">    -30.62551199 </i>
    <i name="e_wo_entrp">    -30.62551199 </i>
    <i name="e_0_energy">    -30.62551199 </i>
   </energy>
  </scstep>
  <structure>
   <crystal>
    <varray name="basis" >
     <v>      -5.21690825      -3.01383998       0.00030439 </v>
     <v>       5.21690825      -3.01383998       0.00030439 </v>
     <v>       0.00000000       1.95752159       6.36378535 </v>
    </varray>
    <i name="volume">    200.12087762 </i>
    <varray name="rec_basis" >
     <v>      -0.09584221      -0.16589616       0.05103021 </v>
     <v>       0.09584221      -0.16589616       0.05103021 </v>
     <v>       0.00000000       0.00001587       0.15713430 </v>
    </varray>
   </crystal>
   <varray name="positions" >
    <v>       0.16661939       0.83338061       0.00000000 </v>
    <v>       0.83338061       0.16661939       0.00000000 </v>
    <v>       0.79566868       0.79566868       0.78948757 </v>
    <v>       0.20433132       0.20433132       0.21051243 </v>
    <v>       0.93121861       0.56810172       0.20971430 </v>
    <v>       0.43189828       0.06878139       0.79028570 </v>
    <v>       0.06878139       0.43189828       0.79028570 </v>
    <v>       0.56810172       0.93121861       0.20971430 </v>
   </varray>
  </structure>
  <varray name="forces" >
   <v>      -0.00130758      -0.00000000      -0.00000000 </v>
   <v>       0.00130758      -0.00000000      -0.00000000 </v>
   <v>       0.00000000       0.01183341      -0.00685542 </v>
   <v>       0.00000000      -0.01183341       0.00685542 </v>
   <v>       0.00843237       0.00547462       0.00738366 </v>
   <v>       0.00843237      -0.00547462      -0.00738366 </v>
   <v>      -0.00843237      -0.00547462      -0.00738366 </v>
   <v>      -0.00843237       0.00547462       0.00738366 </v>
  </varray>
  <varray name="stress" >
   <v>       1.27445763       0.00000000       0.00000000 </v>
   <v>       0.00000000       1.28250344      -0.15326150 </v>
   <v>       0.00000000      -0.15326145       4.10548402 </v>
  </varray>
  <energy>
   <i name="e_fr_energy">    -30.62551199 </i>
   <i name="e_wo_entrp">    -30.62551199 </i>
   <i name="e_0_energy">    -30.62551199 </i>
  </energy>
  <time name="totalsc">    4.49    4.53</time>
  <eigenvalues>
   <array>
    <dimension dim="1">band</dimension>
    <dimension dim="2">kpoint</dimension>
    <dimension dim="3">spin</dimension>
    <field>eigene</field>
    <field>occ</field>
    <set>
     <set comment="spin 1">
      <set comment="kpoint 1">
       <r>  -14.3992    1.0000 </r>
       <r>  -13.4520    1.0000 </r>
       <r>  -13.4196    1.0000 </r>
       <r>  -13.3360    1.0000 </r>
       <r>  -12.9987    1.0000 </r>
       <r>  -12.9757    1.0000 </r>
       <r>   -5.1915    1.0000 </r>
       <r>   -4.1408    1.0000 </r>
       <r>   -3.5468    1.0000 </r>
       <r>   -3.2713    1.0000 </r>
       <r>   -3.1037    1.0000 </r>
       <r>   -2.8168    1.0000 </r>
       <r>   -2.3326    1.0000 </r>
       <r>   -1.7265    1.0000 </r>
       <r>   -1.3213    1.0000 </r>
       <r>   -1.2566    1.0000 </r>
       <r>   -0.9873    1.0000 </r>
       <r>   -0.9118    1.0000 </r>
       <r>   -0.7257    1.0000 </r>
       <r>   -0.6953    1.0000 </r>
       <r>   -0.4494    1.0000 </r>
       <r>   -0.4365    1.0000 </r>
       <r>   -0.2619    1.0000 </r>
       <r>   -0.1543    1.0000 </r>
       <r>    5.6379    0.0000 </r>
       <r>    5.7589    0.0000 </r>
       <r>    7.4614    0.0000 </r>
       <r>    8.1144    0.0000 </r>
       <r>    8.5306    0.0000 </r>
       <r>    9.0092    0.0000 </r>
       <r>    9.1125    0.0000 </r>
       <r>    9.2572    0.0000 </r>
      </set>
      <set comment="kpoint 2">
       <r>  -14.1186    1.0000 </r>
       <r>  -13.7838    1.0000 </r>
       <r>  -13.4101    1.0000 </r>
       <r>  -13.2768    1.0000 </r>
       <r>  -13.0960    1.0000 </r>
       <r>  -12.9824    1.0000 </r>
       <r>   -4.8378    1.0000 </r>
       <r>   -4.2352    1.0000 </r>
       <r>   -3.5714    1.0000 </r>
       <r>   -3.0958    1.0000 </r>
       <r>   -2.9120    1.0000 </r>
       <r>   -2.6796    1.0000 </r>
       <r>   -2.4004    1.0000 </r>
       <r>   -1.7769    1.0000 </r>
       <r>   -1.6896    1.0000 </r>
       <r>   -1.2691    1.0000 </r>
       <r>   -1.1136    1.0000 </r>
       <r>   -0.9093    1.0000 </r>
       <r>   -0.7269    1.0000 </r>
       <r>   -0.6613    1.0000 </r>
       <r>   -0.5608    1.0000 </r>
       <r>   -0.4181    1.0000 </r>
       <r>   -0.3061    1.0000 </r>
       <r>   -0.1140    1.0000 </r>
       <r>    5.5829    0.0000 </r>
       <r>    5.8718    0.0000 </r>
       <r>    7.5623    0.0000 </r>
       <r>    7.9310    0.0000 </r>
       <r>    8.3930    0.0000 </r>
       <r>    8.6458    0.0000 </r>
       <r>    8.7607    0.0000 </r>
       <r>    9.0950    0.0000 </r>
      </set>
      <set comment="kpoint 3">
       <r>  -14.2816    1.0000 </r>
       <r>  -13.6011    1.0000 </r>
       <r>  -13.3929    1.0000 </r>
       <r>  -13.3229    1.0000 </r>
       <r>  -13.0539    1.0000 </r>
       <r>  -12.9753    1.0000 </r>
       <r>   -5.0281    1.0000 </r>
       <r>   -4.2296    1.0000 </r>
       <r>   -3.5780    1.0000 </r>
       <r>   -3.3234    1.0000 </r>
       <r>   -2.8884    1.0000 </r>
       <r>   -2.7769    1.0000 </r>
       <r>   -2.1617    1.0000 </r>
       <r>   -1.8944    1.0000 </r>
       <r>   -1.3322    1.0000 </r>
       <r>   -1.2796    1.0000 </r>
       <r>   -0.9959    1.0000 </r>
       <r>   -0.9157    1.0000 </r>
       <r>   -0.8010    1.0000 </r>
       <r>   -0.7097    1.0000 </r>
       <r>   -0.5271    1.0000 </r>
       <r>   -0.3856    1.0000 </r>
       <r>   -0.2020    1.0000 </r>
       <r>   -0.1471    1.0000 </r>
       <r>    5.5523    0.0000 </r>
       <r>    5.7681    0.0000 </r>
       <r>    7.3891    0.0000 </r>
       <r>    8.0115    0.0000 </r>
       <r>    8.1800    0.0000 </r>
       <r>    8.4489    0.0000 </r>
       <r>    8.7906    0.0000 </r>
       <r>    9.0365    0.0000 </r>
      </set>
      <set comment="kpoint 4">
       <r>  -14.4753    1.0000 </r>
       <r>  -13.4470    1.0000 </r>
       <r>  -13.3523    1.0000 </r>
       <r>  -13.3135    1.0000 </r>
       <r>  -12.9805    1.0000 </r>
       <r>  -12.9725    1.0000 </r>
       <r>   -5.3177    1.0000 </r>
       <r>   -4.1761    1.0000 </r>
       <r>   -3.5175    1.0000 </r>
       <r>   -3.2823    1.0000 </r>
       <r>   -3.2152    1.0000 </r>
       <r>   -2.8336    1.0000 </r>
       <r>   -2.5806    1.0000 </r>
       <r>   -1.4489    1.0000 </r>
       <r>   -1.4119    1.0000 </r>
       <r>   -1.2482    1.0000 </r>
       <r>   -0.9738    1.0000 </r>
       <r>   -0.8096    1.0000 </r>
       <r>   -0.7543    1.0000 </r>
       <r>   -0.4860    1.0000 </r>
       <r>   -0.4221    1.0000 </r>
       <r>   -0.2628    1.0000 </r>
       <r>   -0.2318    1.0000 </r>
       <r>   -0.1540    1.0000 </r>
       <r>    5.4677    0.0000 </r>
       <r>    5.5036    0.0000 </r>
       <r>    7.3904    0.0000 </r>
       <r>    7.9387    0.0000 </r>
       <r>    8.4735    0.0000 </r>
       <r>    8.7728    0.0000 </r>
       <r>    8.9917    0.0000 </r>
       <r>    9.1020    0.0000 </r>
      </set>
      <set comment="kpoint 5">
       <r>  -14.0235    1.0000 </r>
       <r>  -13.8669    1.0000 </r>
       <r>  -13.4540    1.0000 </r>
       <r>  -13.2030    1.0000 </r>
       <r>  -13.1571    1.0000 </r>
       <r>  -12.9748    1.0000 </r>
       <r>   -4.6719    1.0000 </r>
       <r>   -4.3835    1.0000 </r>
       <r>   -3.4756    1.0000 </r>
       <r>   -3.2516    1.0000 </r>
       <r>   -3.0778    1.0000 </r>
       <r>   -2.3895    1.0000 </r>
       <r>   -2.3826    1.0000 </r>
       <r>   -1.9993    1.0000 </r>
       <r>   -1.8797    1.0000 </r>
       <r>   -1.0697    1.0000 </r>
       <r>   -1.0369    1.0000 </r>
       <r>   -0.9106    1.0000 </r>
       <r>   -0.7168    1.0000 </r>
       <r>   -0.5653    1.0000 </r>
       <r>   -0.5560    1.0000 </r>
       <r>   -0.3256    1.0000 </r>
       <r>   -0.2479    1.0000 </r>
       <r>   -0.1157    1.0000 </r>
       <r>    5.4740    0.0000 </r>
       <r>    5.7028    0.0000 </r>
       <r>    7.4286    0.0000 </r>
       <r>    7.4617    0.0000 </r>
       <r>    8.0590    0.0000 </r>
       <r>    8.4238    0.0000 </r>
       <r>    8.9201    0.0000 </r>
       <r>    9.0110    0.0000 </r>
      </set>
      <set comment="kpoint 6">
       <r>  -14.2247    1.0000 </r>
       <r>  -13.6822    1.0000 </r>
       <r>  -13.3879    1.0000 </r>
       <r>  -13.3017    1.0000 </r>
       <r>  -13.0629    1.0000 </r>
       <r>  -12.9830    1.0000 </r>
       <r>   -4.9928    1.0000 </r>
       <r>   -4.2075    1.0000 </r>
       <r>   -3.6565    1.0000 </r>
       <r>   -3.1147    1.0000 </r>
       <r>   -2.9033    1.0000 </r>
       <r>   -2.7509    1.0000 </r>
       <r>   -2.3132    1.0000 </r>
       <r>   -1.6571    1.0000 </r>
       <r>   -1.5236    1.0000 </r>
       <r>   -1.4264    1.0000 </r>
       <r>   -1.0783    1.0000 </r>
       <r>   -0.8556    1.0000 </r>
       <r>   -0.7655    1.0000 </r>
       <r>   -0.6600    1.0000 </r>
       <r>   -0.5189    1.0000 </r>
       <r>   -0.3778    1.0000 </r>
       <r>   -0.2790    1.0000 </r>
       <r>   -0.1027    1.0000 </r>
       <r>    5.4472    0.0000 </r>
       <r>    5.9160    0.0000 </r>
       <r>    7.7790    0.0000 </r>
       <r>    7.8534    0.0000 </r>
       <r>    8.0924    0.0000 </r>
       <r>    8.3081    0.0000 </r>
       <r>    8.5636    0.0000 </r>
       <r>    9.0899    0.0000 </r>
      </set>
      <set comment="kpoint 7">
       <r>  -14.2716    1.0000 </r>
       <r>  -13.6100    1.0000 </r>
       <r>  -13.3896    1.0000 </r>
       <r>  -13.3358    1.0000 </r>
       <r>  -13.0452    1.0000 </r>
       <r>  -12.9796    1.0000 </r>
       <r>   -5.0118    1.0000 </r>
       <r>   -4.1896    1.0000 </r>
       <r>   -3.5604    1.0000 </r>
       <r>   -3.2835    1.0000 </r>
       <r>   -2.8802    1.0000 </r>
       <r>   -2.7703    1.0000 </r>
       <r>   -2.1534    1.0000 </r>
       <r>   -1.9360    1.0000 </r>
       <r>   -1.3461    1.0000 </r>
       <r>   -1.2933    1.0000 </r>
       <r>   -1.0463    1.0000 </r>
       <r>   -0.9804    1.0000 </r>
       <r>   -0.8137    1.0000 </r>
       <r>   -0.7127    1.0000 </r>
       <r>   -0.5032    1.0000 </r>
       <r>   -0.4030    1.0000 </r>
       <r>   -0.2610    1.0000 </r>
       <r>   -0.1851    1.0000 </r>
       <r>    5.6481    0.0000 </r>
       <r>    5.8285    0.0000 </r>
       <r>    7.7699    0.0000 </r>
       <r>    8.1825    0.0000 </r>
       <r>    8.3446    0.0000 </r>
       <r>    8.6727    0.0000 </r>
       <r>    8.8027    0.0000 </r>
       <r>    9.0580    0.0000 </r>
      </set>
      <set comment="kpoint 8">
       <r>  -14.0128    1.0000 </r>
       <r>  -13.8714    1.0000 </r>
       <r>  -13.4521    1.0000 </r>
       <r>  -13.2178    1.0000 </r>
       <r>  -13.1501    1.0000 </r>
       <r>  -12.9789    1.0000 </r>
       <r>   -4.6540    1.0000 </r>
       <r>   -4.3938    1.0000 </r>
       <r>   -3.4764    1.0000 </r>
       <r>   -3.1773    1.0000 </r>
       <r>   -2.9644    1.0000 </r>
       <r>   -2.5095    1.0000 </r>
       <r>   -2.3614    1.0000 </r>
       <r>   -1.9675    1.0000 </r>
       <r>   -1.8537    1.0000 </r>
       <r>   -1.2412    1.0000 </r>
       <r>   -1.0600    1.0000 </r>
       <r>   -0.8091    1.0000 </r>
       <r>   -0.7265    1.0000 </r>
       <r>   -0.6374    1.0000 </r>
       <r>   -0.5497    1.0000 </r>
       <r>   -0.3760    1.0000 </r>
       <r>   -0.2705    1.0000 </r>
       <r>   -0.1745    1.0000 </r>
       <r>    5.5571    0.0000 </r>
       <r>    5.7261    0.0000 </r>
       <r>    7.5013    0.0000 </r>
       <r>    7.8167    0.0000 </r>
       <r>    8.5721    0.0000 </r>
       <r>    8.5830    0.0000 </r>
       <r>    8.7589    0.0000 </r>
       <r>    9.1412    0.0000 </r>
      </set>
      <set comment="kpoint 9">
       <r>  -14.1296    1.0000 </r>
       <r>  -13.7723    1.0000 </r>
       <r>  -13.4054    1.0000 </r>
       <r>  -13.2619    1.0000 </r>
       <r>  -13.1101    1.0000 </r>
       <r>  -12.9880    1.0000 </r>
       <r>   -4.8569    1.0000 </r>
       <r>   -4.2634    1.0000 </r>
       <r>   -3.5504    1.0000 </r>
       <r>   -3.0800    1.0000 </r>
       <r>   -2.9257    1.0000 </r>
       <r>   -2.6206    1.0000 </r>
       <r>   -2.4015    1.0000 </r>
       <r>   -1.7651    1.0000 </r>
       <r>   -1.6840    1.0000 </r>
       <r>   -1.2636    1.0000 </r>
       <r>   -1.1211    1.0000 </r>
       <r>   -0.9168    1.0000 </r>
       <r>   -0.6999    1.0000 </r>
       <r>   -0.6973    1.0000 </r>
       <r>   -0.5855    1.0000 </r>
       <r>   -0.4228    1.0000 </r>
       <r>   -0.3160    1.0000 </r>
       <r>   -0.1014    1.0000 </r>
       <r>    5.5598    0.0000 </r>
       <r>    5.8624    0.0000 </r>
       <r>    7.6204    0.0000 </r>
       <r>    8.1233    0.0000 </r>
       <r>    8.3239    0.0000 </r>
       <r>    8.4937    0.0000 </r>
       <r>    8.6381    0.0000 </r>
       <r>    8.9004    0.0000 </r>
      </set>
      <set comment="kpoint 10">
       <r>  -14.4100    1.0000 </r>
       <r>  -13.4412    1.0000 </r>
       <r>  -13.4068    1.0000 </r>
       <r>  -13.3323    1.0000 </r>
       <r>  -13.0109    1.0000 </r>
       <r>  -12.9754    1.0000 </r>
       <r>   -5.2173    1.0000 </r>
       <r>   -4.2103    1.0000 </r>
       <r>   -3.5548    1.0000 </r>
       <r>   -3.3158    1.0000 </r>
       <r>   -3.0555    1.0000 </r>
       <r>   -2.8460    1.0000 </r>
       <r>   -2.3356    1.0000 </r>
       <r>   -1.6627    1.0000 </r>
       <r>   -1.2315    1.0000 </r>
       <r>   -1.2274    1.0000 </r>
       <r>   -0.9310    1.0000 </r>
       <r>   -0.8043    1.0000 </r>
       <r>   -0.7991    1.0000 </r>
       <r>   -0.7446    1.0000 </r>
       <r>   -0.4871    1.0000 </r>
       <r>   -0.4302    1.0000 </r>
       <r>   -0.1638    1.0000 </r>
       <r>   -0.1539    1.0000 </r>
       <r>    5.5232    0.0000 </r>
       <r>    5.6249    0.0000 </r>
       <r>    7.5979    0.0000 </r>
       <r>    7.8640    0.0000 </r>
       <r>    8.1006    0.0000 </r>
       <r>    8.6459    0.0000 </r>
       <r>    8.9773    0.0000 </r>
       <r>    9.2155    0.0000 </r>
      </set>
      <set comment="kpoint 11">
       <r>  -14.3767    1.0000 </r>
       <r>  -13.4530    1.0000 </r>
       <r>  -13.4505    1.0000 </r>
       <r>  -13.3401    1.0000 </r>
       <r>  -13.0003    1.0000 </r>
       <r>  -12.9704    1.0000 </r>
       <r>   -5.2028    1.0000 </r>
       <r>   -4.0142    1.0000 </r>
       <r>   -3.5748    1.0000 </r>
       <r>   -3.3197    1.0000 </r>
       <r>   -3.0632    1.0000 </r>
       <r>   -2.7928    1.0000 </r>
       <r>   -2.3049    1.0000 </r>
       <r>   -1.7006    1.0000 </r>
       <r>   -1.3298    1.0000 </r>
       <r>   -1.2325    1.0000 </r>
       <r>   -1.1593    1.0000 </r>
       <r>   -0.9154    1.0000 </r>
       <r>   -0.7572    1.0000 </r>
       <r>   -0.6747    1.0000 </r>
       <r>   -0.4530    1.0000 </r>
       <r>   -0.4317    1.0000 </r>
       <r>   -0.2962    1.0000 </r>
       <r>   -0.1398    1.0000 </r>
       <r>    5.5612    0.0000 </r>
       <r>    5.9342    0.0000 </r>
       <r>    7.5569    0.0000 </r>
       <r>    8.3072    0.0000 </r>
       <r>    8.4694    0.0000 </r>
       <r>    8.6986    0.0000 </r>
       <r>    8.9208    0.0000 </r>
       <r>    9.1039    0.0000 </r>
      </set>
      <set comment="kpoint 12">
       <r>  -14.1058    1.0000 </r>
       <r>  -13.7733    1.0000 </r>
       <r>  -13.4159    1.0000 </r>
       <r>  -13.2930    1.0000 </r>
       <r>  -13.1085    1.0000 </r>
       <r>  -12.9772    1.0000 </r>
       <r>   -4.8648    1.0000 </r>
       <r>   -4.2219    1.0000 </r>
       <r>   -3.6234    1.0000 </r>
       <r>   -3.1581    1.0000 </r>
       <r>   -2.7993    1.0000 </r>
       <r>   -2.5814    1.0000 </r>
       <r>   -2.4174    1.0000 </r>
       <r>   -1.7988    1.0000 </r>
       <r>   -1.6428    1.0000 </r>
       <r>   -1.2171    1.0000 </r>
       <r>   -1.2044    1.0000 </r>
       <r>   -0.8923    1.0000 </r>
       <r>   -0.7740    1.0000 </r>
       <r>   -0.6474    1.0000 </r>
       <r>   -0.5455    1.0000 </r>
       <r>   -0.3716    1.0000 </r>
       <r>   -0.2793    1.0000 </r>
       <r>   -0.1139    1.0000 </r>
       <r>    5.4184    0.0000 </r>
       <r>    5.8343    0.0000 </r>
       <r>    7.5825    0.0000 </r>
       <r>    7.6658    0.0000 </r>
       <r>    8.2903    0.0000 </r>
       <r>    8.4054    0.0000 </r>
       <r>    8.7514    0.0000 </r>
       <r>    8.9729    0.0000 </r>
      </set>
      <set comment="kpoint 13">
       <r>  -14.2613    1.0000 </r>
       <r>  -13.5953    1.0000 </r>
       <r>  -13.3957    1.0000 </r>
       <r>  -13.3495    1.0000 </r>
       <r>  -13.0605    1.0000 </r>
       <r>  -12.9755    1.0000 </r>
       <r>   -5.0445    1.0000 </r>
       <r>   -4.1537    1.0000 </r>
       <r>   -3.6005    1.0000 </r>
       <r>   -3.2944    1.0000 </r>
       <r>   -2.8359    1.0000 </r>
       <r>   -2.7795    1.0000 </r>
       <r>   -2.1320    1.0000 </r>
       <r>   -1.8771    1.0000 </r>
       <r>   -1.3664    1.0000 </r>
       <r>   -1.2835    1.0000 </r>
       <r>   -1.0300    1.0000 </r>
       <r>   -0.9046    1.0000 </r>
       <r>   -0.8301    1.0000 </r>
       <r>   -0.7489    1.0000 </r>
       <r>   -0.5642    1.0000 </r>
       <r>   -0.3631    1.0000 </r>
       <r>   -0.2125    1.0000 </r>
       <r>   -0.1780    1.0000 </r>
       <r>    5.4656    0.0000 </r>
       <r>    5.8443    0.0000 </r>
       <r>    7.5084    0.0000 </r>
       <r>    7.9447    0.0000 </r>
       <r>    8.2132    0.0000 </r>
       <r>    8.4225    0.0000 </r>
       <r>    8.6593    0.0000 </r>
       <r>    9.0667    0.0000 </r>
      </set>
      <set comment="kpoint 14">
       <r>  -14.4494    1.0000 </r>
       <r>  -13.4854    1.0000 </r>
       <r>  -13.3500    1.0000 </r>
       <r>  -13.3122    1.0000 </r>
       <r>  -12.9830    1.0000 </r>
       <r>  -12.9749    1.0000 </r>
       <r>   -5.3173    1.0000 </r>
       <r>   -3.9923    1.0000 </r>
       <r>   -3.5084    1.0000 </r>
       <r>   -3.3020    1.0000 </r>
       <r>   -3.2030    1.0000 </r>
       <r>   -2.7763    1.0000 </r>
       <r>   -2.6217    1.0000 </r>
       <r>   -1.4354    1.0000 </r>
       <r>   -1.3922    1.0000 </r>
       <r>   -1.2001    1.0000 </r>
       <r>   -1.1564    1.0000 </r>
       <r>   -0.8161    1.0000 </r>
       <r>   -0.7655    1.0000 </r>
       <r>   -0.6933    1.0000 </r>
       <r>   -0.4266    1.0000 </r>
       <r>   -0.3349    1.0000 </r>
       <r>   -0.2081    1.0000 </r>
       <r>   -0.1651    1.0000 </r>
       <r>    5.4990    0.0000 </r>
       <r>    5.8587    0.0000 </r>
       <r>    7.3503    0.0000 </r>
       <r>    8.1392    0.0000 </r>
       <r>    8.3851    0.0000 </r>
       <r>    8.8759    0.0000 </r>
       <r>    9.1761    0.0000 </r>
       <r>    9.3232    0.0000 </r>
      </set>
      <set comment="kpoint 15">
       <r>  -14.0046    1.0000 </r>
       <r>  -13.8582    1.0000 </r>
       <r>  -13.4476    1.0000 </r>
       <r>  -13.2285    1.0000 </r>
       <r>  -13.1699    1.0000 </r>
       <r>  -12.9810    1.0000 </r>
       <r>   -4.6707    1.0000 </r>
       <r>   -4.3846    1.0000 </r>
       <r>   -3.4082    1.0000 </r>
       <r>   -3.2551    1.0000 </r>
       <r>   -3.1103    1.0000 </r>
       <r>   -2.3352    1.0000 </r>
       <r>   -2.2343    1.0000 </r>
       <r>   -2.0376    1.0000 </r>
       <r>   -1.8722    1.0000 </r>
       <r>   -1.0471    1.0000 </r>
       <r>   -1.0253    1.0000 </r>
       <r>   -0.9286    1.0000 </r>
       <r>   -0.8521    1.0000 </r>
       <r>   -0.6456    1.0000 </r>
       <r>   -0.5783    1.0000 </r>
       <r>   -0.3505    1.0000 </r>
       <r>   -0.2170    1.0000 </r>
       <r>   -0.1224    1.0000 </r>
       <r>    5.5133    0.0000 </r>
       <r>    5.6072    0.0000 </r>
       <r>    7.3462    0.0000 </r>
       <r>    7.6231    0.0000 </r>
       <r>    8.1279    0.0000 </r>
       <r>    8.3986    0.0000 </r>
       <r>    8.7312    0.0000 </r>
       <r>    8.8436    0.0000 </r>
      </set>
      <set comment="kpoint 16">
       <r>  -14.2011    1.0000 </r>
       <r>  -13.6712    1.0000 </r>
       <r>  -13.3823    1.0000 </r>
       <r>  -13.3343    1.0000 </r>
       <r>  -13.0786    1.0000 </r>
       <r>  -12.9898    1.0000 </r>
       <r>   -4.9791    1.0000 </r>
       <r>   -4.1407    1.0000 </r>
       <r>   -3.5995    1.0000 </r>
       <r>   -3.1611    1.0000 </r>
       <r>   -2.8293    1.0000 </r>
       <r>   -2.6347    1.0000 </r>
       <r>   -2.3683    1.0000 </r>
       <r>   -1.6692    1.0000 </r>
       <r>   -1.4906    1.0000 </r>
       <r>   -1.3270    1.0000 </r>
       <r>   -1.1921    1.0000 </r>
       <r>   -0.9017    1.0000 </r>
       <r>   -0.8388    1.0000 </r>
       <r>   -0.7314    1.0000 </r>
       <r>   -0.5946    1.0000 </r>
       <r>   -0.3884    1.0000 </r>
       <r>   -0.3083    1.0000 </r>
       <r>   -0.1962    1.0000 </r>
       <r>    5.5611    0.0000 </r>
       <r>    5.9367    0.0000 </r>
       <r>    7.7232    0.0000 </r>
       <r>    8.2017    0.0000 </r>
       <r>    8.3945    0.0000 </r>
       <r>    8.5816    0.0000 </r>
       <r>    8.6693    0.0000 </r>
       <r>    9.0936    0.0000 </r>
      </set>
      <set comment="kpoint 17">
       <r>  -14.2507    1.0000 </r>
       <r>  -13.6041    1.0000 </r>
       <r>  -13.3961    1.0000 </r>
       <r>  -13.3598    1.0000 </r>
       <r>  -13.0506    1.0000 </r>
       <r>  -12.9805    1.0000 </r>
       <r>   -5.0287    1.0000 </r>
       <r>   -4.1134    1.0000 </r>
       <r>   -3.5821    1.0000 </r>
       <r>   -3.2489    1.0000 </r>
       <r>   -2.8685    1.0000 </r>
       <r>   -2.7218    1.0000 </r>
       <r>   -2.1320    1.0000 </r>
       <r>   -1.9229    1.0000 </r>
       <r>   -1.3574    1.0000 </r>
       <r>   -1.3328    1.0000 </r>
       <r>   -1.1164    1.0000 </r>
       <r>   -0.9156    1.0000 </r>
       <r>   -0.8299    1.0000 </r>
       <r>   -0.7896    1.0000 </r>
       <r>   -0.5391    1.0000 </r>
       <r>   -0.3859    1.0000 </r>
       <r>   -0.2803    1.0000 </r>
       <r>   -0.1849    1.0000 </r>
       <r>    5.5559    0.0000 </r>
       <r>    5.9021    0.0000 </r>
       <r>    7.8242    0.0000 </r>
       <r>    8.1080    0.0000 </r>
       <r>    8.5078    0.0000 </r>
       <r>    8.7315    0.0000 </r>
       <r>    8.7983    0.0000 </r>
       <r>    9.0315    0.0000 </r>
      </set>
      <set comment="kpoint 18">
       <r>  -13.9933    1.0000 </r>
       <r>  -13.8630    1.0000 </r>
       <r>  -13.4457    1.0000 </r>
       <r>  -13.2440    1.0000 </r>
       <r>  -13.1627    1.0000 </r>
       <r>  -12.9852    1.0000 </r>
       <r>   -4.6529    1.0000 </r>
       <r>   -4.3955    1.0000 </r>
       <r>   -3.4056    1.0000 </r>
       <r>   -3.1824    1.0000 </r>
       <r>   -3.0090    1.0000 </r>
       <r>   -2.4588    1.0000 </r>
       <r>   -2.2016    1.0000 </r>
       <r>   -2.0144    1.0000 </r>
       <r>   -1.8379    1.0000 </r>
       <r>   -1.1810    1.0000 </r>
       <r>   -1.0452    1.0000 </r>
       <r>   -0.9282    1.0000 </r>
       <r>   -0.8206    1.0000 </r>
       <r>   -0.6607    1.0000 </r>
       <r>   -0.6096    1.0000 </r>
       <r>   -0.3923    1.0000 </r>
       <r>   -0.2508    1.0000 </r>
       <r>   -0.1755    1.0000 </r>
       <r>    5.5943    0.0000 </r>
       <r>    5.6222    0.0000 </r>
       <r>    7.7097    0.0000 </r>
       <r>    7.8269    0.0000 </r>
       <r>    8.2912    0.0000 </r>
       <r>    8.4415    0.0000 </r>
       <r>    8.7119    0.0000 </r>
       <r>    8.9963    0.0000 </r>
      </set>
      <set comment="kpoint 19">
       <r>  -14.1172    1.0000 </r>
       <r>  -13.7614    1.0000 </r>
       <r>  -13.4118    1.0000 </r>
       <r>  -13.2770    1.0000 </r>
       <r>  -13.1229    1.0000 </r>
       <r>  -12.9832    1.0000 </r>
       <r>   -4.8831    1.0000 </r>
       <r>   -4.2490    1.0000 </r>
       <r>   -3.6038    1.0000 </r>
       <r>   -3.1355    1.0000 </r>
       <r>   -2.8240    1.0000 </r>
       <r>   -2.5174    1.0000 </r>
       <r>   -2.4327    1.0000 </r>
       <r>   -1.7853    1.0000 </r>
       <r>   -1.6529    1.0000 </r>
       <r>   -1.2017    1.0000 </r>
       <r>   -1.1435    1.0000 </r>
       <r>   -0.9201    1.0000 </r>
       <r>   -0.7775    1.0000 </r>
       <r>   -0.6698    1.0000 </r>
       <r>   -0.5689    1.0000 </r>
       <r>   -0.3828    1.0000 </r>
       <r>   -0.2814    1.0000 </r>
       <r>   -0.1206    1.0000 </r>
       <r>    5.3857    0.0000 </r>
       <r>    5.8299    0.0000 </r>
       <r>    7.6520    0.0000 </r>
       <r>    7.8054    0.0000 </r>
       <r>    8.2051    0.0000 </r>
       <r>    8.3744    0.0000 </r>
       <r>    8.6207    0.0000 </r>
       <r>    8.9673    0.0000 </r>
      </set>
      <set comment="kpoint 20">
       <r>  -14.3882    1.0000 </r>
       <r>  -13.4396    1.0000 </r>
       <r>  -13.4388    1.0000 </r>
       <r>  -13.3370    1.0000 </r>
       <r>  -13.0126    1.0000 </r>
       <r>  -12.9702    1.0000 </r>
       <r>   -5.2285    1.0000 </r>
       <r>   -4.0889    1.0000 </r>
       <r>   -3.5749    1.0000 </r>
       <r>   -3.3616    1.0000 </r>
       <r>   -3.0281    1.0000 </r>
       <r>   -2.8305    1.0000 </r>
       <r>   -2.3050    1.0000 </r>
       <r>   -1.6429    1.0000 </r>
       <r>   -1.2339    1.0000 </r>
       <r>   -1.2227    1.0000 </r>
       <r>   -0.9952    1.0000 </r>
       <r>   -0.8800    1.0000 </r>
       <r>   -0.8226    1.0000 </r>
       <r>   -0.6804    1.0000 </r>
       <r>   -0.5311    1.0000 </r>
       <r>   -0.4255    1.0000 </r>
       <r>   -0.2180    1.0000 </r>
       <r>   -0.1382    1.0000 </r>
       <r>    5.4392    0.0000 </r>
       <r>    5.8152    0.0000 </r>
       <r>    7.6769    0.0000 </r>
       <r>    7.9212    0.0000 </r>
       <r>    8.1491    0.0000 </r>
       <r>    8.4801    0.0000 </r>
       <r>    8.8067    0.0000 </r>
       <r>    9.0957    0.0000 </r>
      </set>
     </set>
     <set comment="spin 2">
      <set comment="kpoint 1">
       <r>  -14.3992    1.0000 </r>
       <r>  -13.4521    1.0000 </r>
       <r>  -13.4197    1.0000 </r>
       <r>  -13.3360    1.0000 </r>
       <r>  -12.9987    1.0000 </r>
       <r>  -12.9757    1.0000 </r>
       <r>   -5.1917    1.0000 </r>
       <r>   -4.1410    1.0000 </r>
       <r>   -3.5469    1.0000 </r>
       <r>   -3.2714    1.0000 </r>
       <r>   -3.1038    1.0000 </r>
       <r>   -2.8168    1.0000 </r>
       <r>   -2.3326    1.0000 </r>
       <r>   -1.7266    1.0000 </r>
       <r>   -1.3214    1.0000 </r>
       <r>   -1.2567    1.0000 </r>
       <r>   -0.9873    1.0000 </r>
       <r>   -0.9119    1.0000 </r>
       <r>   -0.7257    1.0000 </r>
       <r>   -0.6954    1.0000 </r>
       <r>   -0.4495    1.0000 </r>
       <r>   -0.4365    1.0000 </r>
       <r>   -0.2619    1.0000 </r>
       <r>   -0.1543    1.0000 </r>
       <r>    5.6376    0.0000 </r>
       <r>    5.7584    0.0000 </r>
       <r>    7.4609    0.0000 </r>
       <r>    8.1139    0.0000 </r>
       <r>    8.5302    0.0000 </r>
       <r>    9.0090    0.0000 </r>
       <r>    9.1121    0.0000 </r>
       <r>    9.2565    0.0000 </r>
      </set>
      <set comment="kpoint 2">
       <r>  -14.1187    1.0000 </r>
       <r>  -13.7839    1.0000 </r>
       <r>  -13.4101    1.0000 </r>
       <r>  -13.2769    1.0000 </r>
       <r>  -13.0960    1.0000 </r>
       <r>  -12.9824    1.0000 </r>
       <r>   -4.8380    1.0000 </r>
       <r>   -4.2353    1.0000 </r>
       <r>   -3.5714    1.0000 </r>
       <r>   -3.0959    1.0000 </r>
       <r>   -2.9121    1.0000 </r>
       <r>   -2.6797    1.0000 </r>
       <r>   -2.4005    1.0000 </r>
       <r>   -1.7769    1.0000 </r>
       <r>   -1.6896    1.0000 </r>
       <r>   -1.2692    1.0000 </r>
       <r>   -1.1137    1.0000 </r>
       <r>   -0.9094    1.0000 </r>
       <r>   -0.7269    1.0000 </r>
       <r>   -0.6614    1.0000 </r>
       <r>   -0.5608    1.0000 </r>
       <r>   -0.4181    1.0000 </r>
       <r>   -0.3061    1.0000 </r>
       <r>   -0.1140    1.0000 </r>
       <r>    5.5826    0.0000 </r>
       <r>    5.8714    0.0000 </r>
       <r>    7.5618    0.0000 </r>
       <r>    7.9306    0.0000 </r>
       <r>    8.3920    0.0000 </r>
       <r>    8.6456    0.0000 </r>
       <r>    8.7604    0.0000 </r>
       <r>    9.0840    0.0000 </r>
      </set>
      <set comment="kpoint 3">
       <r>  -14.2816    1.0000 </r>
       <r>  -13.6011    1.0000 </r>
       <r>  -13.3929    1.0000 </r>
       <r>  -13.3229    1.0000 </r>
       <r>  -13.0539    1.0000 </r>
       <r>  -12.9754    1.0000 </r>
       <r>   -5.0283    1.0000 </r>
       <r>   -4.2297    1.0000 </r>
       <r>   -3.5781    1.0000 </r>
       <r>   -3.3234    1.0000 </r>
       <r>   -2.8885    1.0000 </r>
       <r>   -2.7770    1.0000 </r>
       <r>   -2.1618    1.0000 </r>
       <r>   -1.8944    1.0000 </r>
       <r>   -1.3323    1.0000 </r>
       <r>   -1.2796    1.0000 </r>
       <r>   -0.9960    1.0000 </r>
       <r>   -0.9157    1.0000 </r>
       <r>   -0.8010    1.0000 </r>
       <r>   -0.7098    1.0000 </r>
       <r>   -0.5272    1.0000 </r>
       <r>   -0.3857    1.0000 </r>
       <r>   -0.2020    1.0000 </r>
       <r>   -0.1471    1.0000 </r>
       <r>    5.5519    0.0000 </r>
       <r>    5.7676    0.0000 </r>
       <r>    7.3884    0.0000 </r>
       <r>    8.0106    0.0000 </r>
       <r>    8.1797    0.0000 </r>
       <r>    8.4484    0.0000 </r>
       <r>    8.7903    0.0000 </r>
       <r>    9.0387    0.0000 </r>
      </set>
      <set comment="kpoint 4">
       <r>  -14.4754    1.0000 </r>
       <r>  -13.4470    1.0000 </r>
       <r>  -13.3523    1.0000 </r>
       <r>  -13.3135    1.0000 </r>
       <r>  -12.9806    1.0000 </r>
       <r>  -12.9725    1.0000 </r>
       <r>   -5.3179    1.0000 </r>
       <r>   -4.1763    1.0000 </r>
       <r>   -3.5176    1.0000 </r>
       <r>   -3.2824    1.0000 </r>
       <r>   -3.2153    1.0000 </r>
       <r>   -2.8337    1.0000 </r>
       <r>   -2.5807    1.0000 </r>
       <r>   -1.4489    1.0000 </r>
       <r>   -1.4120    1.0000 </r>
       <r>   -1.2483    1.0000 </r>
       <r>   -0.9739    1.0000 </r>
       <r>   -0.8097    1.0000 </r>
       <r>   -0.7543    1.0000 </r>
       <r>   -0.4861    1.0000 </r>
       <r>   -0.4221    1.0000 </r>
       <r>   -0.2629    1.0000 </r>
       <r>   -0.2318    1.0000 </r>
       <r>   -0.1541    1.0000 </r>
       <r>    5.4672    0.0000 </r>
       <r>    5.5032    0.0000 </r>
       <r>    7.3902    0.0000 </r>
       <r>    7.9380    0.0000 </r>
       <r>    8.4731    0.0000 </r>
       <r>    8.7716    0.0000 </r>
       <r>    8.9914    0.0000 </r>
       <r>    9.1015    0.0000 </r>
      </set>
      <set comment="kpoint 5">
       <r>  -14.0236    1.0000 </r>
       <r>  -13.8669    1.0000 </r>
       <r>  -13.4540    1.0000 </r>
       <r>  -13.2030    1.0000 </r>
       <r>  -13.1571    1.0000 </r>
       <r>  -12.9749    1.0000 </r>
       <r>   -4.6721    1.0000 </r>
       <r>   -4.3836    1.0000 </r>
       <r>   -3.4757    1.0000 </r>
       <r>   -3.2517    1.0000 </r>
       <r>   -3.0779    1.0000 </r>
       <r>   -2.3896    1.0000 </r>
       <r>   -2.3827    1.0000 </r>
       <r>   -1.9993    1.0000 </r>
       <r>   -1.8799    1.0000 </r>
       <r>   -1.0698    1.0000 </r>
       <r>   -1.0370    1.0000 </r>
       <r>   -0.9106    1.0000 </r>
       <r>   -0.7169    1.0000 </r>
       <r>   -0.5653    1.0000 </r>
       <r>   -0.5560    1.0000 </r>
       <r>   -0.3256    1.0000 </r>
       <r>   -0.2479    1.0000 </r>
       <r>   -0.1158    1.0000 </r>
       <r>    5.4736    0.0000 </r>
       <r>    5.7024    0.0000 </r>
       <r>    7.4282    0.0000 </r>
       <r>    7.4614    0.0000 </r>
       <r>    8.0576    0.0000 </r>
       <r>    8.4237    0.0000 </r>
       <r>    8.9225    0.0000 </r>
       <r>    9.0106    0.0000 </r>
      </set>
      <set comment="kpoint 6">
       <r>  -14.2248    1.0000 </r>
       <r>  -13.6822    1.0000 </r>
       <r>  -13.3880    1.0000 </r>
       <r>  -13.3017    1.0000 </r>
       <r>  -13.0629    1.0000 </r>
       <r>  -12.9830    1.0000 </r>
       <r>   -4.9930    1.0000 </r>
       <r>   -4.2077    1.0000 </r>
       <r>   -3.6565    1.0000 </r>
       <r>   -3.1148    1.0000 </r>
       <r>   -2.9034    1.0000 </r>
       <r>   -2.7510    1.0000 </r>
       <r>   -2.3133    1.0000 </r>
       <r>   -1.6572    1.0000 </r>
       <r>   -1.5237    1.0000 </r>
       <r>   -1.4264    1.0000 </r>
       <r>   -1.0783    1.0000 </r>
       <r>   -0.8556    1.0000 </r>
       <r>   -0.7655    1.0000 </r>
       <r>   -0.6600    1.0000 </r>
       <r>   -0.5189    1.0000 </r>
       <r>   -0.3778    1.0000 </r>
       <r>   -0.2790    1.0000 </r>
       <r>   -0.1027    1.0000 </r>
       <r>    5.4468    0.0000 </r>
       <r>    5.9156    0.0000 </r>
       <r>    7.7784    0.0000 </r>
       <r>    7.8529    0.0000 </r>
       <r>    8.0921    0.0000 </r>
       <r>    8.3077    0.0000 </r>
       <r>    8.5629    0.0000 </r>
       <r>    9.0893    0.0000 </r>
      </set>
      <set comment="kpoint 7">
       <r>  -14.2717    1.0000 </r>
       <r>  -13.6101    1.0000 </r>
       <r>  -13.3896    1.0000 </r>
       <r>  -13.3358    1.0000 </r>
       <r>  -13.0452    1.0000 </r>
       <r>  -12.9797    1.0000 </r>
       <r>   -5.0120    1.0000 </r>
       <r>   -4.1897    1.0000 </r>
       <r>   -3.5605    1.0000 </r>
       <r>   -3.2836    1.0000 </r>
[...]
        <r>  0.0140  0.0134  0.0521  0.0000  0.0000  0.0000  0.0000  0.0000  0.0000 </r>
        <r>  0.0140  0.0134  0.0521  0.0000  0.0000  0.0000  0.0000  0.0000  0.0000 </r>
        <r>  0.0114  0.0097  0.0440  0.0154  0.0000  0.0000  0.0000  0.0000  0.0000 </r>
        <r>  0.0114  0.0097  0.0440  0.0154  0.0000  0.0000  0.0000  0.0000  0.0000 </r>
        <r>  0.0114  0.0097  0.0440  0.0154  0.0000  0.0000  0.0000  0.0000  0.0000 </r>
        <r>  0.0114  0.0097  0.0440  0.0154  0.0000  0.0000  0.0000  0.0000  0.0000 </r>
       </set>
       <set comment="band 9">
        <r>  0.0000  0.0007  0.0218  0.0043  0.0000  0.0000  0.0000  0.0000  0.0000 </r>
        <r>  0.0000  0.0007  0.0218  0.0043  0.0000  0.0000  0.0000  0.0000  0.0000 </r>
        <r>  0.0000  0.0000  0.0000  0.0952  0.0000  0.0000  0.0000  0.0000  0.0000 </r>
        <r>  0.0000  0.0000  0.0000  0.0952  0.0000  0.0000  0.0000  0.0000  0.0000 </r>
        <r>  0.0008  0.0450  0.0070  0.0252  0.0000  0.0000  0.0000  0.0000  0.0000 </r>
        <r>  0.0008  0.0450  0.0070  0.0252  0.0000  0.0000  0.0000  0.0000  0.0000 </r>
        <r>  0.0008  0.0450  0.0070  0.0252  0.0000  0.0000  0.0000  0.0000  0.0000 </r>
        <r>  0.0008  0.0450  0.0070  0.0252  0.0000  0.0000  0.0000  0.0000  0.0000 </r>
       </set>
       <set comment="band 10">
        <r>  0.0000  0.0000  0.0014  0.0203  0.0000  0.0000  0.0000  0.0000  0.0000 </r>
        <r>  0.0000  0.0000  0.0014  0.0203  0.0000  0.0000  0.0000  0.0000  0.0000 </r>
        <r>  0.0080  0.0518  0.0725  0.0000  0.0000  0.0000  0.0000  0.0000  0.0000 </r>
        <r>  0.0080  0.0518  0.0725  0.0000  0.0000  0.0000  0.0000  0.0000  0.0000 </r>
        <r>  0.0015  0.0115  0.0133  0.0374  0.0000  0.0000  0.0000  0.0000  0.0000 </r>
        <r>  0.0015  0.0115  0.0133  0.0374  0.0000  0.0000  0.0000  0.0000  0.0000 </r>
        <r>  0.0015  0.0115  0.0133  0.0374  0.0000  0.0000  0.0000  0.0000  0.0000 </r>
        <r>  0.0015  0.0115  0.0133  0.0374  0.0000  0.0000  0.0000  0.0000  0.0000 </r>
       </set>
       <set comment="band 11">
        <r>  0.0005  0.0223  0.0006  0.0000  0.0000  0.0000  0.0000  0.0000  0.0000 </r>
        <r>  0.0005  0.0223  0.0006  0.0000  0.0000  0.0000  0.0000  0.0000  0.0000 </r>
        <r>  0.0000  0.0000  0.0000  0.0222  0.0000  0.0000  0.0000  0.0000  0.0000 </r>
        <r>  0.0000  0.0000  0.0000  0.0222  0.0000  0.0000  0.0000  0.0000  0.0000 </r>
        <r>  0.0048  0.0571  0.0517  0.0093  0.0000  0.0000  0.0000  0.0000  0.0000 </r>
        <r>  0.0048  0.0571  0.0517  0.0093  0.0000  0.0000  0.0000  0.0000  0.0000 </r>
        <r>  0.0048  0.0571  0.0517  0.0093  0.0000  0.0000  0.0000  0.0000  0.0000 </r>
        <r>  0.0048  0.0571  0.0517  0.0093  0.0000  0.0000  0.0000  0.0000  0.0000 </r>
       </set>
       <set comment="band 12">
        <r>  0.0000  0.0146  0.0000  0.0000  0.0000  0.0000  0.0000  0.0000  0.0000 </r>
        <r>  0.0000  0.0146  0.0000  0.0000  0.0000  0.0000  0.0000  0.0000  0.0000 </r>
        <r>  0.0009  0.0434  0.0200  0.0000  0.0000  0.0000  0.0000  0.0000  0.0000 </r>
        <r>  0.0009  0.0434  0.0200  0.0000  0.0000  0.0000  0.0000  0.0000  0.0000 </r>
        <r>  0.0012  0.0238  0.0294  0.0448  0.0000  0.0000  0.0000  0.0000  0.0000 </r>
        <r>  0.0012  0.0238  0.0294  0.0448  0.0000  0.0000  0.0000  0.0000  0.0000 </r>
        <r>  0.0012  0.0238  0.0294  0.0448  0.0000  0.0000  0.0000  0.0000  0.0000 </r>
        <r>  0.0012  0.0238  0.0294  0.0448  0.0000  0.0000  0.0000  0.0000  0.0000 </r>
       </set>
       <set comment="band 13">
        <r>  0.0001  0.0000  0.0060  0.0124  0.0000  0.0000  0.0000  0.0000  0.0000 </r>
        <r>  0.0001  0.0000  0.0060  0.0124  0.0000  0.0000  0.0000  0.0000  0.0000 </r>
        <r>  0.0000  0.0000  0.0000  0.1224  0.0000  0.0000  0.0000  0.0000  0.0000 </r>
        <r>  0.0000  0.0000  0.0000  0.1224  0.0000  0.0000  0.0000  0.0000  0.0000 </r>
        <r>  0.0011  0.0538  0.0183  0.0062  0.0000  0.0000  0.0000  0.0000  0.0000 </r>
        <r>  0.0011  0.0538  0.0183  0.0062  0.0000  0.0000  0.0000  0.0000  0.0000 </r>
        <r>  0.0011  0.0538  0.0183  0.0062  0.0000  0.0000  0.0000  0.0000  0.0000 </r>
        <r>  0.0011  0.0538  0.0183  0.0062  0.0000  0.0000  0.0000  0.0000  0.0000 </r>
       </set>
       <set comment="band 14">
        <r>  0.0000  0.0015  0.0069  0.0003  0.0000  0.0000  0.0000  0.0000  0.0000 </r>
        <r>  0.0000  0.0015  0.0069  0.0003  0.0000  0.0000  0.0000  0.0000  0.0000 </r>
        <r>  0.0015  0.0070  0.0570  0.0000  0.0000  0.0000  0.0000  0.0000  0.0000 </r>
        <r>  0.0015  0.0070  0.0570  0.0000  0.0000  0.0000  0.0000  0.0000  0.0000 </r>
        <r>  0.0017  0.0938  0.0072  0.0197  0.0000  0.0000  0.0000  0.0000  0.0000 </r>
        <r>  0.0017  0.0938  0.0072  0.0197  0.0000  0.0000  0.0000  0.0000  0.0000 </r>
        <r>  0.0017  0.0938  0.0072  0.0197  0.0000  0.0000  0.0000  0.0000  0.0000 </r>
        <r>  0.0017  0.0938  0.0072  0.0197  0.0000  0.0000  0.0000  0.0000  0.0000 </r>
       </set>
       <set comment="band 15">
        <r>  0.0004  0.0000  0.0000  0.0005  0.0000  0.0000  0.0000  0.0000  0.0000 </r>
        <r>  0.0004  0.0000  0.0000  0.0005  0.0000  0.0000  0.0000  0.0000  0.0000 </r>
        <r>  0.0000  0.0000  0.0000  0.1199  0.0000  0.0000  0.0000  0.0000  0.0000 </r>
        <r>  0.0000  0.0000  0.0000  0.1199  0.0000  0.0000  0.0000  0.0000  0.0000 </r>
        <r>  0.0002  0.0455  0.0514  0.0086  0.0000  0.0000  0.0000  0.0000  0.0000 </r>
        <r>  0.0002  0.0455  0.0514  0.0086  0.0000  0.0000  0.0000  0.0000  0.0000 </r>
        <r>  0.0002  0.0455  0.0514  0.0086  0.0000  0.0000  0.0000  0.0000  0.0000 </r>
        <r>  0.0002  0.0455  0.0514  0.0086  0.0000  0.0000  0.0000  0.0000  0.0000 </r>
       </set>
       <set comment="band 16">
        <r>  0.0013  0.0016  0.0031  0.0006  0.0000  0.0000  0.0000  0.0000  0.0000 </r>
        <r>  0.0013  0.0016  0.0031  0.0006  0.0000  0.0000  0.0000  0.0000  0.0000 </r>
        <r>  0.0006  0.0550  0.0119  0.0000  0.0000  0.0000  0.0000  0.0000  0.0000 </r>
        <r>  0.0006  0.0550  0.0119  0.0000  0.0000  0.0000  0.0000  0.0000  0.0000 </r>
        <r>  0.0002  0.0143  0.0309  0.0728  0.0000  0.0000  0.0000  0.0000  0.0000 </r>
        <r>  0.0002  0.0143  0.0309  0.0728  0.0000  0.0000  0.0000  0.0000  0.0000 </r>
        <r>  0.0002  0.0143  0.0309  0.0728  0.0000  0.0000  0.0000  0.0000  0.0000 </r>
        <r>  0.0002  0.0143  0.0309  0.0728  0.0000  0.0000  0.0000  0.0000  0.0000 </r>
       </set>
       <set comment="band 17">
        <r>  0.0000  0.0002  0.0045  0.0003  0.0000  0.0000  0.0000  0.0000  0.0000 </r>
        <r>  0.0000  0.0002  0.0045  0.0003  0.0000  0.0000  0.0000  0.0000  0.0000 </r>
        <r>  0.0002  0.0577  0.0412  0.0000  0.0000  0.0000  0.0000  0.0000  0.0000 </r>
        <r>  0.0002  0.0577  0.0412  0.0000  0.0000  0.0000  0.0000  0.0000  0.0000 </r>
        <r>  0.0001  0.0133  0.0734  0.0241  0.0000  0.0000  0.0000  0.0000  0.0000 </r>
        <r>  0.0001  0.0133  0.0734  0.0241  0.0000  0.0000  0.0000  0.0000  0.0000 </r>
        <r>  0.0001  0.0133  0.0734  0.0241  0.0000  0.0000  0.0000  0.0000  0.0000 </r>
        <r>  0.0001  0.0133  0.0734  0.0241  0.0000  0.0000  0.0000  0.0000  0.0000 </r>
       </set>
       <set comment="band 18">
        <r>  0.0007  0.0002  0.0006  0.0005  0.0000  0.0000  0.0000  0.0000  0.0000 </r>
        <r>  0.0007  0.0002  0.0006  0.0005  0.0000  0.0000  0.0000  0.0000  0.0000 </r>
        <r>  0.0009  0.0432  0.1247  0.0000  0.0000  0.0000  0.0000  0.0000  0.0000 </r>
        <r>  0.0009  0.0432  0.1247  0.0000  0.0000  0.0000  0.0000  0.0000  0.0000 </r>
        <r>  0.0004  0.0481  0.0225  0.0092  0.0000  0.0000  0.0000  0.0000  0.0000 </r>
        <r>  0.0004  0.0481  0.0225  0.0092  0.0000  0.0000  0.0000  0.0000  0.0000 </r>
        <r>  0.0004  0.0481  0.0225  0.0092  0.0000  0.0000  0.0000  0.0000  0.0000 </r>
        <r>  0.0004  0.0481  0.0225  0.0092  0.0000  0.0000  0.0000  0.0000  0.0000 </r>
       </set>
       <set comment="band 19">
        <r>  0.0000  0.0002  0.0010  0.0000  0.0000  0.0000  0.0000  0.0000  0.0000 </r>
        <r>  0.0000  0.0002  0.0010  0.0000  0.0000  0.0000  0.0000  0.0000  0.0000 </r>
        <r>  0.0000  0.0000  0.0000  0.0344  0.0000  0.0000  0.0000  0.0000  0.0000 </r>
        <r>  0.0000  0.0000  0.0000  0.0344  0.0000  0.0000  0.0000  0.0000  0.0000 </r>
        <r>  0.0003  0.0076  0.1289  0.0155  0.0000  0.0000  0.0000  0.0000  0.0000 </r>
        <r>  0.0003  0.0076  0.1289  0.0155  0.0000  0.0000  0.0000  0.0000  0.0000 </r>
        <r>  0.0003  0.0076  0.1289  0.0155  0.0000  0.0000  0.0000  0.0000  0.0000 </r>
        <r>  0.0003  0.0076  0.1289  0.0155  0.0000  0.0000  0.0000  0.0000  0.0000 </r>
       </set>
       <set comment="band 20">
        <r>  0.0014  0.0045  0.0006  0.0002  0.0000  0.0000  0.0000  0.0000  0.0000 </r>
        <r>  0.0014  0.0045  0.0006  0.0002  0.0000  0.0000  0.0000  0.0000  0.0000 </r>
        <r>  0.0007  0.1637  0.0759  0.0000  0.0000  0.0000  0.0000  0.0000  0.0000 </r>
        <r>  0.0007  0.1637  0.0759  0.0000  0.0000  0.0000  0.0000  0.0000  0.0000 </r>
        <r>  0.0008  0.0335  0.0103  0.0042  0.0000  0.0000  0.0000  0.0000  0.0000 </r>
        <r>  0.0008  0.0335  0.0103  0.0042  0.0000  0.0000  0.0000  0.0000  0.0000 </r>
        <r>  0.0008  0.0335  0.0103  0.0042  0.0000  0.0000  0.0000  0.0000  0.0000 </r>
        <r>  0.0008  0.0335  0.0103  0.0042  0.0000  0.0000  0.0000  0.0000  0.0000 </r>
       </set>
       <set comment="band 21">
        <r>  0.0005  0.0001  0.0004  0.0001  0.0000  0.0000  0.0000  0.0000  0.0000 </r>
        <r>  0.0005  0.0001  0.0004  0.0001  0.0000  0.0000  0.0000  0.0000  0.0000 </r>
        <r>  0.0002  0.0972  0.1125  0.0000  0.0000  0.0000  0.0000  0.0000  0.0000 </r>
        <r>  0.0002  0.0972  0.1125  0.0000  0.0000  0.0000  0.0000  0.0000  0.0000 </r>
        <r>  0.0012  0.0044  0.0095  0.0476  0.0000  0.0000  0.0000  0.0000  0.0000 </r>
        <r>  0.0012  0.0044  0.0095  0.0476  0.0000  0.0000  0.0000  0.0000  0.0000 </r>
        <r>  0.0012  0.0044  0.0095  0.0476  0.0000  0.0000  0.0000  0.0000  0.0000 </r>
        <r>  0.0012  0.0044  0.0095  0.0476  0.0000  0.0000  0.0000  0.0000  0.0000 </r>
       </set>
       <set comment="band 22">
        <r>  0.0004  0.0007  0.0000  0.0047  0.0000  0.0000  0.0000  0.0000  0.0000 </r>
        <r>  0.0004  0.0007  0.0000  0.0047  0.0000  0.0000  0.0000  0.0000  0.0000 </r>
        <r>  0.0000  0.0000  0.0000  0.0383  0.0000  0.0000  0.0000  0.0000  0.0000 </r>
        <r>  0.0000  0.0000  0.0000  0.0383  0.0000  0.0000  0.0000  0.0000  0.0000 </r>
        <r>  0.0002  0.0055  0.0238  0.1222  0.0000  0.0000  0.0000  0.0000  0.0000 </r>
        <r>  0.0002  0.0055  0.0238  0.1222  0.0000  0.0000  0.0000  0.0000  0.0000 </r>
        <r>  0.0002  0.0055  0.0238  0.1222  0.0000  0.0000  0.0000  0.0000  0.0000 </r>
        <r>  0.0002  0.0055  0.0238  0.1222  0.0000  0.0000  0.0000  0.0000  0.0000 </r>
       </set>
       <set comment="band 23">
        <r>  0.0000  0.0000  0.0006  0.0004  0.0000  0.0000  0.0000  0.0000  0.0000 </r>
        <r>  0.0000  0.0000  0.0006  0.0004  0.0000  0.0000  0.0000  0.0000  0.0000 </r>
        <r>  0.0001  0.0755  0.0299  0.0000  0.0000  0.0000  0.0000  0.0000  0.0000 </r>
        <r>  0.0001  0.0755  0.0299  0.0000  0.0000  0.0000  0.0000  0.0000  0.0000 </r>
        <r>  0.0000  0.0597  0.0490  0.0131  0.0000  0.0000  0.0000  0.0000  0.0000 </r>
        <r>  0.0000  0.0597  0.0490  0.0131  0.0000  0.0000  0.0000  0.0000  0.0000 </r>
        <r>  0.0000  0.0597  0.0490  0.0131  0.0000  0.0000  0.0000  0.0000  0.0000 </r>
        <r>  0.0000  0.0597  0.0490  0.0131  0.0000  0.0000  0.0000  0.0000  0.0000 </r>
       </set>
       <set comment="band 24">
        <r>  0.0001  0.0000  0.0001  0.0010  0.0000  0.0000  0.0000  0.0000  0.0000 </r>
        <r>  0.0001  0.0000  0.0001  0.0010  0.0000  0.0000  0.0000  0.0000  0.0000 </r>
        <r>  0.0000  0.0000  0.0000  0.0713  0.0000  0.0000  0.0000  0.0000  0.0000 </r>
        <r>  0.0000  0.0000  0.0000  0.0713  0.0000  0.0000  0.0000  0.0000  0.0000 </r>
        <r>  0.0000  0.0063  0.0218  0.1150  0.0000  0.0000  0.0000  0.0000  0.0000 </r>
        <r>  0.0000  0.0063  0.0218  0.1150  0.0000  0.0000  0.0000  0.0000  0.0000 </r>
        <r>  0.0000  0.0063  0.0218  0.1150  0.0000  0.0000  0.0000  0.0000  0.0000 </r>
        <r>  0.0000  0.0063  0.0218  0.1150  0.0000  0.0000  0.0000  0.0000  0.0000 </r>
       </set>
       <set comment="band 25">
        <r>  0.1278  0.0002  0.0000  0.0003  0.0000  0.0000  0.0000  0.0000  0.0000 </r>
        <r>  0.1278  0.0002  0.0000  0.0003  0.0000  0.0000  0.0000  0.0000  0.0000 </r>
        <r>  0.0000  0.0000  0.0000  0.0407  0.0000  0.0000  0.0000  0.0000  0.0000 </r>
        <r>  0.0000  0.0000  0.0000  0.0407  0.0000  0.0000  0.0000  0.0000  0.0000 </r>
        <r>  0.0013  0.0254  0.0037  0.0078  0.0000  0.0000  0.0000  0.0000  0.0000 </r>
        <r>  0.0013  0.0254  0.0037  0.0078  0.0000  0.0000  0.0000  0.0000  0.0000 </r>
        <r>  0.0013  0.0254  0.0037  0.0078  0.0000  0.0000  0.0000  0.0000  0.0000 </r>
        <r>  0.0013  0.0254  0.0037  0.0078  0.0000  0.0000  0.0000  0.0000  0.0000 </r>
       </set>
       <set comment="band 26">
        <r>  0.1251  0.0013  0.0002  0.0002  0.0000  0.0000  0.0000  0.0000  0.0000 </r>
        <r>  0.1251  0.0013  0.0002  0.0002  0.0000  0.0000  0.0000  0.0000  0.0000 </r>
        <r>  0.0158  0.0184  0.0158  0.0000  0.0000  0.0000  0.0000  0.0000  0.0000 </r>
        <r>  0.0158  0.0184  0.0158  0.0000  0.0000  0.0000  0.0000  0.0000  0.0000 </r>
        <r>  0.0133  0.0158  0.0147  0.0091  0.0000  0.0000  0.0000  0.0000  0.0000 </r>
        <r>  0.0133  0.0158  0.0147  0.0091  0.0000  0.0000  0.0000  0.0000  0.0000 </r>
        <r>  0.0133  0.0158  0.0147  0.0091  0.0000  0.0000  0.0000  0.0000  0.0000 </r>
        <r>  0.0133  0.0158  0.0147  0.0091  0.0000  0.0000  0.0000  0.0000  0.0000 </r>
       </set>
       <set comment="band 27">
        <r>  0.0009  0.0042  0.0695  0.0034  0.0000  0.0000  0.0000  0.0000  0.0000 </r>
        <r>  0.0009  0.0042  0.0695  0.0034  0.0000  0.0000  0.0000  0.0000  0.0000 </r>
        <r>  0.0186  0.0154  0.0034  0.0000  0.0000  0.0000  0.0000  0.0000  0.0000 </r>
        <r>  0.0186  0.0154  0.0034  0.0000  0.0000  0.0000  0.0000  0.0000  0.0000 </r>
        <r>  0.0129  0.0041  0.0001  0.0072  0.0000  0.0000  0.0000  0.0000  0.0000 </r>
        <r>  0.0129  0.0041  0.0001  0.0072  0.0000  0.0000  0.0000  0.0000  0.0000 </r>
        <r>  0.0129  0.0041  0.0001  0.0072  0.0000  0.0000  0.0000  0.0000  0.0000 </r>
        <r>  0.0129  0.0041  0.0001  0.0072  0.0000  0.0000  0.0000  0.0000  0.0000 </r>
       </set>
       <set comment="band 28">
        <r>  0.0003  0.0364  0.0032  0.0149  0.0000  0.0000  0.0000  0.0000  0.0000 </r>
        <r>  0.0003  0.0364  0.0032  0.0149  0.0000  0.0000  0.0000  0.0000  0.0000 </r>
        <r>  0.0160  0.0023  0.0080  0.0000  0.0000  0.0000  0.0000  0.0000  0.0000 </r>
        <r>  0.0160  0.0023  0.0080  0.0000  0.0000  0.0000  0.0000  0.0000  0.0000 </r>
        <r>  0.0055  0.0050  0.0004  0.0019  0.0000  0.0000  0.0000  0.0000  0.0000 </r>
        <r>  0.0055  0.0050  0.0004  0.0019  0.0000  0.0000  0.0000  0.0000  0.0000 </r>
        <r>  0.0055  0.0050  0.0004  0.0019  0.0000  0.0000  0.0000  0.0000  0.0000 </r>
        <r>  0.0055  0.0050  0.0004  0.0019  0.0000  0.0000  0.0000  0.0000  0.0000 </r>
       </set>
       <set comment="band 29">
        <r>  0.0013  0.0016  0.0000  0.0742  0.0000  0.0000  0.0000  0.0000  0.0000 </r>
        <r>  0.0013  0.0016  0.0000  0.0742  0.0000  0.0000  0.0000  0.0000  0.0000 </r>
        <r>  0.0000  0.0000  0.0000  0.0130  0.0000  0.0000  0.0000  0.0000  0.0000 </r>
        <r>  0.0000  0.0000  0.0000  0.0130  0.0000  0.0000  0.0000  0.0000  0.0000 </r>
        <r>  0.0060  0.0105  0.0024  0.0005  0.0000  0.0000  0.0000  0.0000  0.0000 </r>
        <r>  0.0060  0.0105  0.0024  0.0005  0.0000  0.0000  0.0000  0.0000  0.0000 </r>
        <r>  0.0060  0.0105  0.0024  0.0005  0.0000  0.0000  0.0000  0.0000  0.0000 </r>
        <r>  0.0060  0.0105  0.0024  0.0005  0.0000  0.0000  0.0000  0.0000  0.0000 </r>
       </set>
       <set comment="band 30">
        <r>  0.0006  0.0195  0.0001  0.0313  0.0000  0.0000  0.0000  0.0000  0.0000 </r>
        <r>  0.0006  0.0195  0.0001  0.0313  0.0000  0.0000  0.0000  0.0000  0.0000 </r>
        <r>  0.0060  0.0088  0.0169  0.0000  0.0000  0.0000  0.0000  0.0000  0.0000 </r>
        <r>  0.0060  0.0088  0.0169  0.0000  0.0000  0.0000  0.0000  0.0000  0.0000 </r>
        <r>  0.0109  0.0015  0.0031  0.0017  0.0000  0.0000  0.0000  0.0000  0.0000 </r>
        <r>  0.0109  0.0014  0.0031  0.0017  0.0000  0.0000  0.0000  0.0000  0.0000 </r>
        <r>  0.0109  0.0015  0.0031  0.0017  0.0000  0.0000  0.0000  0.0000  0.0000 </r>
        <r>  0.0109  0.0014  0.0031  0.0017  0.0000  0.0000  0.0000  0.0000  0.0000 </r>
       </set>
       <set comment="band 31">
        <r>  0.0015  0.0081  0.0027  0.0022  0.0000  0.0000  0.0000  0.0000  0.0000 </r>
        <r>  0.0015  0.0081  0.0028  0.0021  0.0000  0.0000  0.0000  0.0000  0.0000 </r>
        <r>  0.0064  0.0095  0.0006  0.0000  0.0000  0.0000  0.0000  0.0000  0.0000 </r>
        <r>  0.0064  0.0095  0.0006  0.0000  0.0000  0.0000  0.0000  0.0000  0.0000 </r>
        <r>  0.0000  0.0026  0.0103  0.0033  0.0000  0.0000  0.0000  0.0000  0.0000 </r>
        <r>  0.0000  0.0026  0.0103  0.0033  0.0000  0.0000  0.0000  0.0000  0.0000 </r>
        <r>  0.0000  0.0026  0.0103  0.0033  0.0000  0.0000  0.0000  0.0000  0.0000 </r>
        <r>  0.0000  0.0026  0.0103  0.0033  0.0000  0.0000  0.0000  0.0000  0.0000 </r>
       </set>
       <set comment="band 32">
        <r>  0.0002  0.0686  0.0024  0.0000  0.0000  0.0000  0.0000  0.0000  0.0000 </r>
        <r>  0.0002  0.0683  0.0024  0.0000  0.0000  0.0000  0.0000  0.0000  0.0000 </r>
        <r>  0.0000  0.0000  0.0000  0.0054  0.0000  0.0000  0.0000  0.0000  0.0000 </r>
        <r>  0.0000  0.0000  0.0000  0.0052  0.0000  0.0000  0.0000  0.0000  0.0000 </r>
        <r>  0.0105  0.0097  0.0169  0.0040  0.0000  0.0000  0.0000  0.0000  0.0000 </r>
        <r>  0.0104  0.0095  0.0170  0.0039  0.0000  0.0000  0.0000  0.0000  0.0000 </r>
        <r>  0.0104  0.0094  0.0168  0.0040  0.0000  0.0000  0.0000  0.0000  0.0000 </r>
        <r>  0.0105  0.0098  0.0170  0.0041  0.0000  0.0000  0.0000  0.0000  0.0000 </r>
       </set>
      </set>
     </set>
    </set>
   </array>
  </projected>
 </calculation>
 <structure name="finalpos" >
  <crystal>
   <varray name="basis" >
    <v>      -5.21690825      -3.01383998       0.00030439 </v>
    <v>       5.21690825      -3.01383998       0.00030439 </v>
    <v>       0.00000000       1.95752159       6.36378535 </v>
   </varray>
   <i name="volume">    200.12087762 </i>
   <varray name="rec_basis" >
    <v>      -0.09584221      -0.16589616       0.05103021 </v>
    <v>       0.09584221      -0.16589616       0.05103021 </v>
    <v>       0.00000000       0.00001587       0.15713430 </v>
   </varray>
  </crystal>
  <varray name="positions" >
   <v>       0.16661939       0.83338061       0.00000000 </v>
   <v>       0.83338061       0.16661939       0.00000000 </v>
   <v>       0.79566868       0.79566868       0.78948757 </v>
   <v>       0.20433132       0.20433132       0.21051243 </v>
   <v>       0.93121861       0.56810172       0.20971430 </v>
   <v>       0.43189828       0.06878139       0.79028570 </v>
   <v>       0.06878139       0.43189828       0.79028570 </v>
   <v>       0.56810172       0.93121861       0.20971430 </v>
  </varray>
 </structure>
</modeling>
